
===
=== NSC g16 WRAPPER, version: 1.0
===
=== This invokation of Gaussian is made via an NSC wrapper script
=== with the primary purpose of adjusting parallelization settings
=== and to discover input errors. The bare Gaussian binary is available
=== with the suffix '.orig'
===
Warning: gaussian input lindaworker threads per node (16 threads for 1 lindaworkers) 
allocation is lower than the slurm allocation (32 in total).

=== NSC g16 WRAPPER: Running Gaussian in stdin mode
 Entering Gaussian System, Link 0=/software/sse/easybuild/prefix/software/Gaussian/16.B.01-avx2-nsc1-bdist/g16/g16.orig
 Initial command:
 /software/sse/easybuild/prefix/software/Gaussian/16.B.01-avx2-nsc1-bdist/g16/l1.exe "/scratch/local/Gau-251893.inp" -scrdir="/scratch/local/"
 Entering Link 1 = /software/sse/easybuild/prefix/software/Gaussian/16.B.01-avx2-nsc1-bdist/g16/l1.exe PID=    251894.
  
 Copyright (c) 1988-2017, Gaussian, Inc.  All Rights Reserved.
  
 This is part of the Gaussian(R) 16 program.  It is based on
 the Gaussian(R) 09 system (copyright 2009, Gaussian, Inc.),
 the Gaussian(R) 03 system (copyright 2003, Gaussian, Inc.),
 the Gaussian(R) 98 system (copyright 1998, Gaussian, Inc.),
 the Gaussian(R) 94 system (copyright 1995, Gaussian, Inc.),
 the Gaussian 92(TM) system (copyright 1992, Gaussian, Inc.),
 the Gaussian 90(TM) system (copyright 1990, Gaussian, Inc.),
 the Gaussian 88(TM) system (copyright 1988, Gaussian, Inc.),
 the Gaussian 86(TM) system (copyright 1986, Carnegie Mellon
 University), and the Gaussian 82(TM) system (copyright 1983,
 Carnegie Mellon University). Gaussian is a federally registered
 trademark of Gaussian, Inc.
  
 This software contains proprietary and confidential information,
 including trade secrets, belonging to Gaussian, Inc.
  
 This software is provided under written license and may be
 used, copied, transmitted, or stored only in accord with that
 written license.
  
 The following legend is applicable only to US Government
 contracts under FAR:
  
                    RESTRICTED RIGHTS LEGEND
  
 Use, reproduction and disclosure by the US Government is
 subject to restrictions as set forth in subparagraphs (a)
 and (c) of the Commercial Computer Software - Restricted
 Rights clause in FAR 52.227-19.
  
 Gaussian, Inc.
 340 Quinnipiac St., Bldg. 40, Wallingford CT 06492
  
  
 ---------------------------------------------------------------
 Warning -- This program may not be used in any manner that
 competes with the business of Gaussian, Inc. or will provide
 assistance to any competitor of Gaussian, Inc.  The licensee
 of this program is prohibited from giving any competitor of
 Gaussian, Inc. access to this program.  By using this program,
 the user acknowledges that Gaussian, Inc. is engaged in the
 business of creating and licensing software in the field of
 computational chemistry and represents and warrants to the
 licensee that it is not a competitor of Gaussian, Inc. and that
 it will not use this program in any manner prohibited above.
 ---------------------------------------------------------------
  

 Cite this work as:
 Gaussian 16, Revision B.01,
 M. J. Frisch, G. W. Trucks, H. B. Schlegel, G. E. Scuseria, 
 M. A. Robb, J. R. Cheeseman, G. Scalmani, V. Barone, 
 G. A. Petersson, H. Nakatsuji, X. Li, M. Caricato, A. V. Marenich, 
 J. Bloino, B. G. Janesko, R. Gomperts, B. Mennucci, H. P. Hratchian, 
 J. V. Ortiz, A. F. Izmaylov, J. L. Sonnenberg, D. Williams-Young, 
 F. Ding, F. Lipparini, F. Egidi, J. Goings, B. Peng, A. Petrone, 
 T. Henderson, D. Ranasinghe, V. G. Zakrzewski, J. Gao, N. Rega, 
 G. Zheng, W. Liang, M. Hada, M. Ehara, K. Toyota, R. Fukuda, 
 J. Hasegawa, M. Ishida, T. Nakajima, Y. Honda, O. Kitao, H. Nakai, 
 T. Vreven, K. Throssell, J. A. Montgomery, Jr., J. E. Peralta, 
 F. Ogliaro, M. J. Bearpark, J. J. Heyd, E. N. Brothers, K. N. Kudin, 
 V. N. Staroverov, T. A. Keith, R. Kobayashi, J. Normand, 
 K. Raghavachari, A. P. Rendell, J. C. Burant, S. S. Iyengar, 
 J. Tomasi, M. Cossi, J. M. Millam, M. Klene, C. Adamo, R. Cammi, 
 J. W. Ochterski, R. L. Martin, K. Morokuma, O. Farkas, 
 J. B. Foresman, and D. J. Fox, Gaussian, Inc., Wallingford CT, 2016.
 
 ******************************************
 Gaussian 16:  ES64L-G16RevB.01 20-Dec-2017
                20-Dec-2019 
 ******************************************
 %nprocshared=16
 Will use up to   16 processors via shared memory.
 %mem=4GB
 %chk=pbe0_pyr_vertS.chk
 ----------------------------------------------------------------------
 #p td=(nstates=5,singlets) pbe1pbe/6-311++G(2df,2pd) pop=(mk,full) gfi
 nput density=current
 ----------------------------------------------------------------------
 1/30=1,38=1,172=1/1;
 2/12=2,17=6,18=5,40=1/2;
 3/5=4,6=6,7=1414,11=9,24=10,25=1,30=1,71=1,74=-13/1,2,3,8;
 4//1;
 5/5=2,38=5/2;
 8/6=1,10=2,108=5/1;
 9/15=1,41=5,42=1,48=1,70=2/14;
 10/5=4,13=10/2;
 6/7=3,15=8,20=1,22=-1/1,2;
 99/5=1,9=1/99;
 Leave Link    1 at Fri Dec 20 18:19:22 2019, MaxMem=   536870912 cpu:               0.6 elap:               0.1
 (Enter /software/sse/easybuild/prefix/software/Gaussian/16.B.01-avx2-nsc1-bdist/g16/l101.exe)
 ----------------------------
 Pyridine singlet excitations
 ----------------------------
 Symbolic Z-matrix:
 Charge =  0 Multiplicity = 1
 C                     1.13523   0.       -0.69054 
 C                    -1.13523   0.       -0.69054 
 C                    -1.19096   0.        0.69611 
 C                     0.        0.        1.40404 
 C                     1.19096   0.        0.69611 
 H                     2.05081   0.       -1.27448 
 H                    -2.05081   0.       -1.27448 
 H                    -2.14713   0.        1.20392 
 H                     0.        0.        2.48753 
 H                     2.14713   0.        1.20392 
 N                     0.        0.       -1.38163 
 
 ITRead=  0  0  0  0  0  0  0  0  0  0  0
 MicOpt= -1 -1 -1 -1 -1 -1 -1 -1 -1 -1 -1
 NAtoms=     11 NQM=       11 NQMF=       0 NMMI=      0 NMMIF=      0
                NMic=       0 NMicF=      0.
                    Isotopes and Nuclear Properties:
 (Nuclear quadrupole moments (NQMom) in fm**2, nuclear magnetic moments (NMagM)
  in nuclear magnetons)

  Atom         1           2           3           4           5           6           7           8           9          10
 IAtWgt=          12          12          12          12          12           1           1           1           1           1
 AtmWgt=  12.0000000  12.0000000  12.0000000  12.0000000  12.0000000   1.0078250   1.0078250   1.0078250   1.0078250   1.0078250
 NucSpn=           0           0           0           0           0           1           1           1           1           1
 AtZEff=  -0.0000000  -0.0000000  -0.0000000  -0.0000000  -0.0000000  -0.0000000  -0.0000000  -0.0000000  -0.0000000  -0.0000000
 NQMom=    0.0000000   0.0000000   0.0000000   0.0000000   0.0000000   0.0000000   0.0000000   0.0000000   0.0000000   0.0000000
 NMagM=    0.0000000   0.0000000   0.0000000   0.0000000   0.0000000   2.7928460   2.7928460   2.7928460   2.7928460   2.7928460
 AtZNuc=   6.0000000   6.0000000   6.0000000   6.0000000   6.0000000   1.0000000   1.0000000   1.0000000   1.0000000   1.0000000

  Atom        11
 IAtWgt=          14
 AtmWgt=  14.0030740
 NucSpn=           2
 AtZEff=  -0.0000000
 NQMom=    2.0440000
 NMagM=    0.4037610
 AtZNuc=   7.0000000
 Leave Link  101 at Fri Dec 20 18:19:22 2019, MaxMem=   536870912 cpu:               1.4 elap:               0.1
 (Enter /software/sse/easybuild/prefix/software/Gaussian/16.B.01-avx2-nsc1-bdist/g16/l202.exe)
                          Input orientation:                          
 ---------------------------------------------------------------------
 Center     Atomic      Atomic             Coordinates (Angstroms)
 Number     Number       Type             X           Y           Z
 ---------------------------------------------------------------------
      1          6           0        1.135230    0.000000   -0.690538
      2          6           0       -1.135230    0.000000   -0.690538
      3          6           0       -1.190955    0.000000    0.696113
      4          6           0        0.000000    0.000000    1.404035
      5          6           0        1.190955    0.000000    0.696113
      6          1           0        2.050814    0.000000   -1.274476
      7          1           0       -2.050814    0.000000   -1.274476
      8          1           0       -2.147134    0.000000    1.203921
      9          1           0        0.000000    0.000000    2.487528
     10          1           0        2.147134    0.000000    1.203921
     11          7           0        0.000000    0.000000   -1.381628
 ---------------------------------------------------------------------
                    Distance matrix (angstroms):
                    1          2          3          4          5
     1  C    0.000000
     2  C    2.270460   0.000000
     3  C    2.708124   1.387770   0.000000
     4  C    2.382432   2.382432   1.385470   0.000000
     5  C    1.387770   2.708124   2.381910   1.385470   0.000000
     6  H    1.085946   3.239114   3.793717   3.373464   2.150018
     7  H    3.239114   1.085946   2.150018   3.373464   3.793717
     8  H    3.789840   2.147772   1.082657   2.156439   3.376493
     9  H    3.374737   3.374737   2.151172   1.083493   2.151172
    10  H    2.147772   3.789840   3.376493   2.156439   1.082657
    11  N    1.329042   1.329042   2.394866   2.785663   2.394866
                    6          7          8          9         10
     6  H    0.000000
     7  H    4.101628   0.000000
     8  H    4.874958   2.480268   0.000000
     9  H    4.284683   4.284683   2.501566   0.000000
    10  H    2.480268   4.874958   4.294268   2.501566   0.000000
    11  N    2.053611   2.053611   3.360840   3.869156   3.360840
                   11
    11  N    0.000000
 Stoichiometry    C5H5N
 Framework group  C2V[C2(HCN),SGV(C4H4)]
 Deg. of freedom    10
 Full point group                 C2V     NOp   4
 Largest Abelian subgroup         C2V     NOp   4
 Largest concise Abelian subgroup C2      NOp   2
                         Standard orientation:                         
 ---------------------------------------------------------------------
 Center     Atomic      Atomic             Coordinates (Angstroms)
 Number     Number       Type             X           Y           Z
 ---------------------------------------------------------------------
      1          6           0        0.000000    1.135230    0.718303
      2          6           0       -0.000000   -1.135230    0.718303
      3          6           0        0.000000   -1.190955   -0.668348
      4          6           0        0.000000   -0.000000   -1.376270
      5          6           0        0.000000    1.190955   -0.668348
      6          1           0        0.000000    2.050814    1.302241
      7          1           0       -0.000000   -2.050814    1.302241
      8          1           0        0.000000   -2.147134   -1.176156
      9          1           0        0.000000   -0.000000   -2.459763
     10          1           0        0.000000    2.147134   -1.176156
     11          7           0        0.000000    0.000000    1.409393
 ---------------------------------------------------------------------
 Rotational constants (GHZ):           6.1079695           5.8838949           2.9969194
 Leave Link  202 at Fri Dec 20 18:19:22 2019, MaxMem=   536870912 cpu:               0.2 elap:               0.0
 (Enter /software/sse/easybuild/prefix/software/Gaussian/16.B.01-avx2-nsc1-bdist/g16/l301.exe)
 Standard basis: 6-311++G(2df,2pd) (5D, 7F)
 Ernie: Thresh=  0.10000D-02 Tol=  0.10000D-05 Strict=F.
 AO basis set in the form of general basis input (Overlap normalization):
      1 0
 S   6 1.00       0.000000000000
      0.4563240000D+04  0.1966650249D-02
      0.6820240000D+03  0.1523060193D-01
      0.1549730000D+03  0.7612690966D-01
      0.4445530000D+02  0.2608010331D+00
      0.1302900000D+02  0.6164620782D+00
      0.1827730000D+01  0.2210060280D+00
 SP   3 1.00       0.000000000000
      0.2096420000D+02  0.1146600807D+00  0.4024869267D-01
      0.4803310000D+01  0.9199996477D+00  0.2375939567D+00
      0.1459330000D+01 -0.3030682134D-02  0.8158538515D+00
 SP   1 1.00       0.000000000000
      0.4834560000D+00  0.1000000000D+01  0.1000000000D+01
 SP   1 1.00       0.000000000000
      0.1455850000D+00  0.1000000000D+01  0.1000000000D+01
 SP   1 1.00       0.000000000000
      0.4380000000D-01  0.1000000000D+01  0.1000000000D+01
 D   1 1.00       0.000000000000
      0.1252000000D+01  0.1000000000D+01
 D   1 1.00       0.000000000000
      0.3130000000D+00  0.1000000000D+01
 F   1 1.00       0.000000000000
      0.8000000000D+00  0.1000000000D+01
 ****
      2 0
 S   6 1.00       0.000000000000
      0.4563240000D+04  0.1966650249D-02
      0.6820240000D+03  0.1523060193D-01
      0.1549730000D+03  0.7612690966D-01
      0.4445530000D+02  0.2608010331D+00
      0.1302900000D+02  0.6164620782D+00
      0.1827730000D+01  0.2210060280D+00
 SP   3 1.00       0.000000000000
      0.2096420000D+02  0.1146600807D+00  0.4024869267D-01
      0.4803310000D+01  0.9199996477D+00  0.2375939567D+00
      0.1459330000D+01 -0.3030682134D-02  0.8158538515D+00
 SP   1 1.00       0.000000000000
      0.4834560000D+00  0.1000000000D+01  0.1000000000D+01
 SP   1 1.00       0.000000000000
      0.1455850000D+00  0.1000000000D+01  0.1000000000D+01
 SP   1 1.00       0.000000000000
      0.4380000000D-01  0.1000000000D+01  0.1000000000D+01
 D   1 1.00       0.000000000000
      0.1252000000D+01  0.1000000000D+01
 D   1 1.00       0.000000000000
      0.3130000000D+00  0.1000000000D+01
 F   1 1.00       0.000000000000
      0.8000000000D+00  0.1000000000D+01
 ****
      3 0
 S   6 1.00       0.000000000000
      0.4563240000D+04  0.1966650249D-02
      0.6820240000D+03  0.1523060193D-01
      0.1549730000D+03  0.7612690966D-01
      0.4445530000D+02  0.2608010331D+00
      0.1302900000D+02  0.6164620782D+00
      0.1827730000D+01  0.2210060280D+00
 SP   3 1.00       0.000000000000
      0.2096420000D+02  0.1146600807D+00  0.4024869267D-01
      0.4803310000D+01  0.9199996477D+00  0.2375939567D+00
      0.1459330000D+01 -0.3030682134D-02  0.8158538515D+00
 SP   1 1.00       0.000000000000
      0.4834560000D+00  0.1000000000D+01  0.1000000000D+01
 SP   1 1.00       0.000000000000
      0.1455850000D+00  0.1000000000D+01  0.1000000000D+01
 SP   1 1.00       0.000000000000
      0.4380000000D-01  0.1000000000D+01  0.1000000000D+01
 D   1 1.00       0.000000000000
      0.1252000000D+01  0.1000000000D+01
 D   1 1.00       0.000000000000
      0.3130000000D+00  0.1000000000D+01
 F   1 1.00       0.000000000000
      0.8000000000D+00  0.1000000000D+01
 ****
      4 0
 S   6 1.00       0.000000000000
      0.4563240000D+04  0.1966650249D-02
      0.6820240000D+03  0.1523060193D-01
      0.1549730000D+03  0.7612690966D-01
      0.4445530000D+02  0.2608010331D+00
      0.1302900000D+02  0.6164620782D+00
      0.1827730000D+01  0.2210060280D+00
 SP   3 1.00       0.000000000000
      0.2096420000D+02  0.1146600807D+00  0.4024869267D-01
      0.4803310000D+01  0.9199996477D+00  0.2375939567D+00
      0.1459330000D+01 -0.3030682134D-02  0.8158538515D+00
 SP   1 1.00       0.000000000000
      0.4834560000D+00  0.1000000000D+01  0.1000000000D+01
 SP   1 1.00       0.000000000000
      0.1455850000D+00  0.1000000000D+01  0.1000000000D+01
 SP   1 1.00       0.000000000000
      0.4380000000D-01  0.1000000000D+01  0.1000000000D+01
 D   1 1.00       0.000000000000
      0.1252000000D+01  0.1000000000D+01
 D   1 1.00       0.000000000000
      0.3130000000D+00  0.1000000000D+01
 F   1 1.00       0.000000000000
      0.8000000000D+00  0.1000000000D+01
 ****
      5 0
 S   6 1.00       0.000000000000
      0.4563240000D+04  0.1966650249D-02
      0.6820240000D+03  0.1523060193D-01
      0.1549730000D+03  0.7612690966D-01
      0.4445530000D+02  0.2608010331D+00
      0.1302900000D+02  0.6164620782D+00
      0.1827730000D+01  0.2210060280D+00
 SP   3 1.00       0.000000000000
      0.2096420000D+02  0.1146600807D+00  0.4024869267D-01
      0.4803310000D+01  0.9199996477D+00  0.2375939567D+00
      0.1459330000D+01 -0.3030682134D-02  0.8158538515D+00
 SP   1 1.00       0.000000000000
      0.4834560000D+00  0.1000000000D+01  0.1000000000D+01
 SP   1 1.00       0.000000000000
      0.1455850000D+00  0.1000000000D+01  0.1000000000D+01
 SP   1 1.00       0.000000000000
      0.4380000000D-01  0.1000000000D+01  0.1000000000D+01
 D   1 1.00       0.000000000000
      0.1252000000D+01  0.1000000000D+01
 D   1 1.00       0.000000000000
      0.3130000000D+00  0.1000000000D+01
 F   1 1.00       0.000000000000
      0.8000000000D+00  0.1000000000D+01
 ****
      6 0
 S   3 1.00       0.000000000000
      0.3386500000D+02  0.2549381454D-01
      0.5094790000D+01  0.1903731086D+00
      0.1158790000D+01  0.8521614860D+00
 S   1 1.00       0.000000000000
      0.3258400000D+00  0.1000000000D+01
 S   1 1.00       0.000000000000
      0.1027410000D+00  0.1000000000D+01
 S   1 1.00       0.000000000000
      0.3600000000D-01  0.1000000000D+01
 P   1 1.00       0.000000000000
      0.1500000000D+01  0.1000000000D+01
 P   1 1.00       0.000000000000
      0.3750000000D+00  0.1000000000D+01
 D   1 1.00       0.000000000000
      0.1000000000D+01  0.1000000000D+01
 ****
      7 0
 S   3 1.00       0.000000000000
      0.3386500000D+02  0.2549381454D-01
      0.5094790000D+01  0.1903731086D+00
      0.1158790000D+01  0.8521614860D+00
 S   1 1.00       0.000000000000
      0.3258400000D+00  0.1000000000D+01
 S   1 1.00       0.000000000000
      0.1027410000D+00  0.1000000000D+01
 S   1 1.00       0.000000000000
      0.3600000000D-01  0.1000000000D+01
 P   1 1.00       0.000000000000
      0.1500000000D+01  0.1000000000D+01
 P   1 1.00       0.000000000000
      0.3750000000D+00  0.1000000000D+01
 D   1 1.00       0.000000000000
      0.1000000000D+01  0.1000000000D+01
 ****
      8 0
 S   3 1.00       0.000000000000
      0.3386500000D+02  0.2549381454D-01
      0.5094790000D+01  0.1903731086D+00
      0.1158790000D+01  0.8521614860D+00
 S   1 1.00       0.000000000000
      0.3258400000D+00  0.1000000000D+01
 S   1 1.00       0.000000000000
      0.1027410000D+00  0.1000000000D+01
 S   1 1.00       0.000000000000
      0.3600000000D-01  0.1000000000D+01
 P   1 1.00       0.000000000000
      0.1500000000D+01  0.1000000000D+01
 P   1 1.00       0.000000000000
      0.3750000000D+00  0.1000000000D+01
 D   1 1.00       0.000000000000
      0.1000000000D+01  0.1000000000D+01
 ****
      9 0
 S   3 1.00       0.000000000000
      0.3386500000D+02  0.2549381454D-01
      0.5094790000D+01  0.1903731086D+00
      0.1158790000D+01  0.8521614860D+00
 S   1 1.00       0.000000000000
      0.3258400000D+00  0.1000000000D+01
 S   1 1.00       0.000000000000
      0.1027410000D+00  0.1000000000D+01
 S   1 1.00       0.000000000000
      0.3600000000D-01  0.1000000000D+01
 P   1 1.00       0.000000000000
      0.1500000000D+01  0.1000000000D+01
 P   1 1.00       0.000000000000
      0.3750000000D+00  0.1000000000D+01
 D   1 1.00       0.000000000000
      0.1000000000D+01  0.1000000000D+01
 ****
     10 0
 S   3 1.00       0.000000000000
      0.3386500000D+02  0.2549381454D-01
      0.5094790000D+01  0.1903731086D+00
      0.1158790000D+01  0.8521614860D+00
 S   1 1.00       0.000000000000
      0.3258400000D+00  0.1000000000D+01
 S   1 1.00       0.000000000000
      0.1027410000D+00  0.1000000000D+01
 S   1 1.00       0.000000000000
      0.3600000000D-01  0.1000000000D+01
 P   1 1.00       0.000000000000
      0.1500000000D+01  0.1000000000D+01
 P   1 1.00       0.000000000000
      0.3750000000D+00  0.1000000000D+01
 D   1 1.00       0.000000000000
      0.1000000000D+01  0.1000000000D+01
 ****
     11 0
 S   6 1.00       0.000000000000
      0.6293480000D+04  0.1969788147D-02
      0.9490440000D+03  0.1496128592D-01
      0.2187760000D+03  0.7350053084D-01
      0.6369160000D+02  0.2489367658D+00
      0.1882820000D+02  0.6024594331D+00
      0.2720230000D+01  0.2562017589D+00
 SP   3 1.00       0.000000000000
      0.3063310000D+02  0.1119060795D+00  0.3831191864D-01
      0.7026140000D+01  0.9216666549D+00  0.2374031155D+00
      0.2112050000D+01 -0.2569191826D-02  0.8175923978D+00
 SP   1 1.00       0.000000000000
      0.6840090000D+00  0.1000000000D+01  0.1000000000D+01
 SP   1 1.00       0.000000000000
      0.2008780000D+00  0.1000000000D+01  0.1000000000D+01
 SP   1 1.00       0.000000000000
      0.6390000000D-01  0.1000000000D+01  0.1000000000D+01
 D   1 1.00       0.000000000000
      0.1826000000D+01  0.1000000000D+01
 D   1 1.00       0.000000000000
      0.4565000000D+00  0.1000000000D+01
 F   1 1.00       0.000000000000
      0.1000000000D+01  0.1000000000D+01
 ****

 There are   123 symmetry adapted cartesian basis functions of A1  symmetry.
 There are    39 symmetry adapted cartesian basis functions of A2  symmetry.
 There are    53 symmetry adapted cartesian basis functions of B1  symmetry.
 There are    99 symmetry adapted cartesian basis functions of B2  symmetry.
 There are   106 symmetry adapted basis functions of A1  symmetry.
 There are    37 symmetry adapted basis functions of A2  symmetry.
 There are    49 symmetry adapted basis functions of B1  symmetry.
 There are    87 symmetry adapted basis functions of B2  symmetry.
   279 basis functions,   402 primitive gaussians,   314 cartesian basis functions
    21 alpha electrons       21 beta electrons
       nuclear repulsion energy       207.1301200834 Hartrees.
 IExCor= 1009 DFT=T Ex+Corr=PBE1PBE ExCW=0 ScaHFX=  0.250000
 ScaDFX=  0.750000  0.750000  1.000000  1.000000 ScalE2=  1.000000  1.000000
 IRadAn=      5 IRanWt=     -1 IRanGd=            0 ICorTp=0 IEmpDi=  4
 NAtoms=   11 NActive=   11 NUniq=    7 SFac= 2.47D+00 NAtFMM=   60 NAOKFM=F Big=F
 Integral buffers will be    131072 words long.
 Regular integral format.
 Two-electron integral symmetry is turned on.
 Leave Link  301 at Fri Dec 20 18:19:22 2019, MaxMem=   536870912 cpu:               1.0 elap:               0.1
 (Enter /software/sse/easybuild/prefix/software/Gaussian/16.B.01-avx2-nsc1-bdist/g16/l302.exe)
 NPDir=0 NMtPBC=     1 NCelOv=     1 NCel=       1 NClECP=     1 NCelD=      1
         NCelK=      1 NCelE2=     1 NClLst=     1 CellRange=     0.0.
 One-electron integrals computed using PRISM.
 One-electron integral symmetry used in STVInt
 NBasis=   279 RedAO= T EigKep=  6.05D-06  NBF=   106    37    49    87
 NBsUse=   279 1.00D-06 EigRej= -1.00D+00 NBFU=   106    37    49    87
 Precomputing XC quadrature grid using
 IXCGrd= 4 IRadAn=           5 IRanWt=          -1 IRanGd=           0 AccXCQ= 0.00D+00.
 Generated NRdTot=       0 NPtTot=           0 NUsed=           0 NTot=          32
 NSgBfM=   314   314   314   314   314 MxSgAt=    11 MxSgA2=    11.
 Leave Link  302 at Fri Dec 20 18:19:22 2019, MaxMem=   536870912 cpu:               3.0 elap:               0.3
 (Enter /software/sse/easybuild/prefix/software/Gaussian/16.B.01-avx2-nsc1-bdist/g16/l303.exe)
 DipDrv:  MaxL=1.
 Leave Link  303 at Fri Dec 20 18:19:23 2019, MaxMem=   536870912 cpu:               0.6 elap:               0.1
 (Enter /software/sse/easybuild/prefix/software/Gaussian/16.B.01-avx2-nsc1-bdist/g16/l308.exe)
 Leave Link  308 at Fri Dec 20 18:19:23 2019, MaxMem=   536870912 cpu:               0.6 elap:               0.1
 (Enter /software/sse/easybuild/prefix/software/Gaussian/16.B.01-avx2-nsc1-bdist/g16/l401.exe)
 ExpMin= 3.60D-02 ExpMax= 6.29D+03 ExpMxC= 9.49D+02 IAcc=3 IRadAn=         5 AccDes= 0.00D+00
 Harris functional with IExCor= 1009 and IRadAn=       5 diagonalized for initial guess.
 HarFok:  IExCor= 1009 AccDes= 0.00D+00 IRadAn=         5 IDoV= 1 UseB2=F ITyADJ=14
 ICtDFT=  3500011 ScaDFX=  1.000000  1.000000  1.000000  1.000000
 FoFCou: FMM=F IPFlag=           0 FMFlag=      100000 FMFlg1=           0
         NFxFlg=           0 DoJE=T BraDBF=F KetDBF=T FulRan=T
         wScrn=  0.000000 ICntrl=       500 IOpCl=  0 I1Cent=   200000004 NGrid=           0
         NMat0=    1 NMatS0=      1 NMatT0=    0 NMatD0=    1 NMtDS0=    0 NMtDT0=    0
 Petite list used in FoFCou.
 Harris En= -248.142460938415    
 JPrj=0 DoOrth=F DoCkMO=F.
 Initial guess orbital symmetries:
       Occupied  (A1) (A1) (B2) (A1) (A1) (B2) (A1) (A1) (B2) (B2)
                 (A1) (A1) (B2) (A1) (B2) (A1) (B1) (B2) (B1) (A2)
                 (A1)
       Virtual   (B1) (A2) (A1) (B2) (B1) (A1) (B2) (A1) (A1) (B1)
                 (A1) (A2) (B1) (B2) (A1) (B2) (B2) (A1) (A1) (B2)
                 (A2) (A1) (B1) (B2) (A1) (B2) (A1) (A1) (B2) (A1)
                 (B2) (A1) (B1) (B2) (A1) (A1) (B2) (A1) (A1) (B2)
                 (B2) (B1) (A1) (B2) (B2) (A1) (B1) (A1) (A2) (B2)
                 (A1) (B1) (A2) (A1) (B1) (A2) (A1) (B2) (B2) (A1)
                 (A2) (B1) (B2) (A1) (A1) (B2) (A1) (A2) (B2) (A1)
                 (B1) (B2) (A1) (B1) (B2) (A1) (B1) (A1) (B2) (A2)
                 (B1) (B2) (A1) (A2) (B1) (A1) (B2) (A1) (B1) (A1)
                 (B2) (B2) (A1) (B2) (A2) (B2) (A1) (A2) (A1) (B1)
                 (A1) (B2) (A1) (B2) (A1) (B1) (A1) (B2) (A2) (B2)
                 (A1) (B2) (A1) (B2) (A1) (B2) (A1) (A2) (A1) (B1)
                 (B2) (B2) (A1) (B1) (A2) (B1) (A2) (A1) (B2) (A1)
                 (B1) (B2) (A2) (A1) (B1) (B2) (B1) (A2) (B1) (A1)
                 (B2) (A1) (B1) (B2) (A1) (B1) (B2) (A2) (A1) (B1)
                 (A2) (B2) (A1) (A2) (B2) (A1) (A2) (A1) (B2) (B1)
                 (B1) (A1) (B2) (A2) (A2) (A1) (B2) (B1) (A1) (B1)
                 (A2) (B2) (A1) (B2) (A1) (B2) (A2) (A1) (B2) (A1)
                 (B1) (A2) (A1) (B1) (A1) (B2) (B1) (A2) (B1) (B2)
                 (A1) (A2) (B1) (A1) (B2) (A1) (B2) (A2) (B2) (A1)
                 (B2) (B1) (A1) (B2) (B1) (A1) (A1) (B2) (A1) (A2)
                 (B2) (A1) (B1) (B2) (A2) (B1) (B1) (A2) (A1) (A1)
                 (B2) (B2) (A1) (B1) (B2) (B2) (A2) (A1) (B1) (A1)
                 (A2) (B2) (A1) (B1) (A2) (B2) (B2) (B1) (A1) (A1)
                 (A1) (A1) (B2) (A1) (B2) (B2) (A1) (A1) (B2) (B2)
                 (A1) (B2) (A1) (B2) (A1) (B2) (A1) (A1)
 The electronic state of the initial guess is 1-A1.
 Leave Link  401 at Fri Dec 20 18:19:23 2019, MaxMem=   536870912 cpu:               4.5 elap:               0.3
 (Enter /software/sse/easybuild/prefix/software/Gaussian/16.B.01-avx2-nsc1-bdist/g16/l502.exe)
 Integral symmetry usage will be decided dynamically.
 Closed shell SCF:
 Using DIIS extrapolation, IDIIS=  1040.
 NGot=   536870912 LenX=   536663925 LenY=   536564888
 Requested convergence on RMS density matrix=1.00D-08 within 128 cycles.
 Requested convergence on MAX density matrix=1.00D-06.
 Requested convergence on             energy=1.00D-06.
 No special actions if energy rises.
 Fock matrices will be formed incrementally for  20 cycles.

 Cycle   1  Pass 1  IDiag  1:
 FoFJK:  IHMeth= 1 ICntrl=       0 DoSepK=F KAlg= 0 I1Cent=           0 FoldK=F
 IRaf= 990000000 NMat=       1 IRICut=       1 DoRegI=T DoRafI=F ISym2E= 1 IDoP0=0 IntGTp=1.
 FoFCou: FMM=F IPFlag=           0 FMFlag=      100000 FMFlg1=           0
         NFxFlg=           0 DoJE=F BraDBF=F KetDBF=F FulRan=T
         wScrn=  0.000000 ICntrl=         0 IOpCl=  0 I1Cent=           0 NGrid=           0
         NMat0=    1 NMatS0=      1 NMatT0=    0 NMatD0=    1 NMtDS0=    0 NMtDT0=    0
 Petite list used in FoFCou.
 E= -247.943542005752    
 DIIS: error= 3.07D-02 at cycle   1 NSaved=   1.
 NSaved= 1 IEnMin= 1 EnMin= -247.943542005752     IErMin= 1 ErrMin= 3.07D-02
 ErrMax= 3.07D-02  0.00D+00 EMaxC= 1.00D-01 BMatC= 1.34D-01 BMatP= 1.34D-01
 IDIUse=3 WtCom= 6.93D-01 WtEn= 3.07D-01
 Coeff-Com:  0.100D+01
 Coeff-En:   0.100D+01
 Coeff:      0.100D+01
 Gap=     0.213 Goal=   None    Shift=    0.000
 GapD=    0.213 DampG=1.000 DampE=0.500 DampFc=0.5000 IDamp=-1.
 Damping current iteration by 5.00D-01
 RMSDP=3.33D-03 MaxDP=1.26D-01              OVMax= 1.55D-01

 Cycle   2  Pass 1  IDiag  1:
 RMSU=  1.53D-03    CP:  9.35D-01
 E= -248.000845582526     Delta-E=       -0.057303576774 Rises=F Damp=T
 DIIS: error= 5.26D-03 at cycle   2 NSaved=   2.
 NSaved= 2 IEnMin= 2 EnMin= -248.000845582526     IErMin= 2 ErrMin= 5.26D-03
 ErrMax= 5.26D-03  0.00D+00 EMaxC= 1.00D-01 BMatC= 1.00D-02 BMatP= 1.34D-01
 IDIUse=3 WtCom= 9.47D-01 WtEn= 5.26D-02
 Coeff-Com: -0.613D-01 0.106D+01
 Coeff-En:   0.000D+00 0.100D+01
 Coeff:     -0.581D-01 0.106D+01
 Gap=     0.251 Goal=   None    Shift=    0.000
 RMSDP=8.20D-04 MaxDP=3.35D-02 DE=-5.73D-02 OVMax= 9.94D-02

 Cycle   3  Pass 1  IDiag  1:
 RMSU=  7.88D-04    CP:  9.20D-01  8.90D-01
 E= -248.060669956993     Delta-E=       -0.059824374467 Rises=F Damp=F
 DIIS: error= 5.54D-03 at cycle   3 NSaved=   3.
 NSaved= 3 IEnMin= 3 EnMin= -248.060669956993     IErMin= 2 ErrMin= 5.26D-03
 ErrMax= 5.54D-03  0.00D+00 EMaxC= 1.00D-01 BMatC= 3.83D-03 BMatP= 1.00D-02
 IDIUse=3 WtCom= 9.45D-01 WtEn= 5.54D-02
 Coeff-Com: -0.101D+00 0.401D+00 0.700D+00
 Coeff-En:   0.000D+00 0.000D+00 0.100D+01
 Coeff:     -0.958D-01 0.379D+00 0.717D+00
 Gap=     0.245 Goal=   None    Shift=    0.000
 RMSDP=3.01D-04 MaxDP=1.38D-02 DE=-5.98D-02 OVMax= 3.16D-02

 Cycle   4  Pass 1  IDiag  1:
 RMSU=  2.73D-04    CP:  9.08D-01  8.85D-01  9.42D-01
 E= -248.063789535766     Delta-E=       -0.003119578773 Rises=F Damp=F
 DIIS: error= 3.39D-03 at cycle   4 NSaved=   4.
 NSaved= 4 IEnMin= 4 EnMin= -248.063789535766     IErMin= 4 ErrMin= 3.39D-03
 ErrMax= 3.39D-03  0.00D+00 EMaxC= 1.00D-01 BMatC= 5.77D-04 BMatP= 3.83D-03
 IDIUse=3 WtCom= 9.66D-01 WtEn= 3.39D-02
 Coeff-Com: -0.467D-01 0.140D+00 0.361D+00 0.546D+00
 Coeff-En:   0.000D+00 0.000D+00 0.486D-01 0.951D+00
 Coeff:     -0.451D-01 0.135D+00 0.350D+00 0.560D+00
 Gap=     0.239 Goal=   None    Shift=    0.000
 RMSDP=1.22D-04 MaxDP=3.63D-03 DE=-3.12D-03 OVMax= 1.61D-02

 Cycle   5  Pass 1  IDiag  1:
 RMSU=  7.53D-05    CP:  9.08D-01  9.25D-01  9.42D-01  7.28D-01
 E= -248.064274837734     Delta-E=       -0.000485301967 Rises=F Damp=F
 DIIS: error= 1.48D-03 at cycle   5 NSaved=   5.
 NSaved= 5 IEnMin= 5 EnMin= -248.064274837734     IErMin= 5 ErrMin= 1.48D-03
 ErrMax= 1.48D-03  0.00D+00 EMaxC= 1.00D-01 BMatC= 1.32D-04 BMatP= 5.77D-04
 IDIUse=3 WtCom= 9.85D-01 WtEn= 1.48D-02
 Coeff-Com: -0.163D-01 0.351D-01 0.128D+00 0.352D+00 0.501D+00
 Coeff-En:   0.000D+00 0.000D+00 0.000D+00 0.201D+00 0.799D+00
 Coeff:     -0.161D-01 0.346D-01 0.126D+00 0.350D+00 0.505D+00
 Gap=     0.241 Goal=   None    Shift=    0.000
 RMSDP=4.83D-05 MaxDP=1.57D-03 DE=-4.85D-04 OVMax= 5.40D-03

 Cycle   6  Pass 1  IDiag  1:
 RMSU=  1.78D-05    CP:  9.08D-01  9.11D-01  9.57D-01  8.05D-01  5.93D-01
 E= -248.064410895488     Delta-E=       -0.000136057754 Rises=F Damp=F
 DIIS: error= 2.31D-04 at cycle   6 NSaved=   6.
 NSaved= 6 IEnMin= 6 EnMin= -248.064410895488     IErMin= 6 ErrMin= 2.31D-04
 ErrMax= 2.31D-04  0.00D+00 EMaxC= 1.00D-01 BMatC= 6.59D-06 BMatP= 1.32D-04
 IDIUse=3 WtCom= 9.98D-01 WtEn= 2.31D-03
 Coeff-Com: -0.812D-02 0.158D-01 0.632D-01 0.190D+00 0.303D+00 0.436D+00
 Coeff-En:   0.000D+00 0.000D+00 0.000D+00 0.000D+00 0.000D+00 0.100D+01
 Coeff:     -0.810D-02 0.158D-01 0.630D-01 0.189D+00 0.302D+00 0.437D+00
 Gap=     0.241 Goal=   None    Shift=    0.000
 RMSDP=8.11D-06 MaxDP=3.86D-04 DE=-1.36D-04 OVMax= 9.00D-04

 Cycle   7  Pass 1  IDiag  1:
 RMSU=  5.65D-06    CP:  9.08D-01  9.12D-01  9.56D-01  7.95D-01  6.04D-01
                    CP:  7.67D-01
 E= -248.064416268461     Delta-E=       -0.000005372973 Rises=F Damp=F
 DIIS: error= 2.44D-05 at cycle   7 NSaved=   7.
 NSaved= 7 IEnMin= 7 EnMin= -248.064416268461     IErMin= 7 ErrMin= 2.44D-05
 ErrMax= 2.44D-05  0.00D+00 EMaxC= 1.00D-01 BMatC= 9.77D-08 BMatP= 6.59D-06
 IDIUse=1 WtCom= 1.00D+00 WtEn= 0.00D+00
 Coeff-Com: -0.108D-03-0.242D-03 0.986D-03 0.528D-02 0.193D-01 0.119D+00
 Coeff-Com:  0.856D+00
 Coeff:     -0.108D-03-0.242D-03 0.986D-03 0.528D-02 0.193D-01 0.119D+00
 Coeff:      0.856D+00
 Gap=     0.241 Goal=   None    Shift=    0.000
 RMSDP=2.68D-06 MaxDP=9.69D-05 DE=-5.37D-06 OVMax= 8.32D-05

 Cycle   8  Pass 1  IDiag  1:
 RMSU=  9.14D-07    CP:  9.08D-01  9.11D-01  9.58D-01  8.00D-01  6.08D-01
                    CP:  8.12D-01  9.91D-01
 E= -248.064416346218     Delta-E=       -0.000000077757 Rises=F Damp=F
 DIIS: error= 4.85D-06 at cycle   8 NSaved=   8.
 NSaved= 8 IEnMin= 8 EnMin= -248.064416346218     IErMin= 8 ErrMin= 4.85D-06
 ErrMax= 4.85D-06  0.00D+00 EMaxC= 1.00D-01 BMatC= 4.73D-09 BMatP= 9.77D-08
 IDIUse=1 WtCom= 1.00D+00 WtEn= 0.00D+00
 Coeff-Com:  0.110D-03-0.401D-03-0.879D-03-0.158D-02 0.198D-02 0.397D-01
 Coeff-Com:  0.335D+00 0.627D+00
 Coeff:      0.110D-03-0.401D-03-0.879D-03-0.158D-02 0.198D-02 0.397D-01
 Coeff:      0.335D+00 0.627D+00
 Gap=     0.241 Goal=   None    Shift=    0.000
 RMSDP=3.24D-07 MaxDP=1.56D-05 DE=-7.78D-08 OVMax= 2.95D-05

 Cycle   9  Pass 1  IDiag  1:
 RMSU=  2.36D-07    CP:  9.08D-01  9.11D-01  9.58D-01  8.00D-01  6.08D-01
                    CP:  8.17D-01  1.01D+00  9.71D-01
 E= -248.064416349740     Delta-E=       -0.000000003522 Rises=F Damp=F
 DIIS: error= 2.16D-06 at cycle   9 NSaved=   9.
 NSaved= 9 IEnMin= 9 EnMin= -248.064416349740     IErMin= 9 ErrMin= 2.16D-06
 ErrMax= 2.16D-06  0.00D+00 EMaxC= 1.00D-01 BMatC= 8.06D-10 BMatP= 4.73D-09
 IDIUse=1 WtCom= 1.00D+00 WtEn= 0.00D+00
 Coeff-Com:  0.383D-04-0.776D-04-0.377D-03-0.108D-02-0.145D-02-0.377D-03
 Coeff-Com:  0.462D-02 0.294D+00 0.704D+00
 Coeff:      0.383D-04-0.776D-04-0.377D-03-0.108D-02-0.145D-02-0.377D-03
 Coeff:      0.462D-02 0.294D+00 0.704D+00
 Gap=     0.241 Goal=   None    Shift=    0.000
 RMSDP=1.56D-07 MaxDP=5.43D-06 DE=-3.52D-09 OVMax= 1.20D-05

 Cycle  10  Pass 1  IDiag  1:
 RMSU=  4.49D-08    CP:  9.08D-01  9.11D-01  9.58D-01  8.00D-01  6.08D-01
                    CP:  8.19D-01  1.01D+00  1.03D+00  7.72D-01
 E= -248.064416350542     Delta-E=       -0.000000000802 Rises=F Damp=F
 DIIS: error= 2.05D-07 at cycle  10 NSaved=  10.
 NSaved=10 IEnMin=10 EnMin= -248.064416350542     IErMin=10 ErrMin= 2.05D-07
 ErrMax= 2.05D-07  0.00D+00 EMaxC= 1.00D-01 BMatC= 7.79D-12 BMatP= 8.06D-10
 IDIUse=1 WtCom= 1.00D+00 WtEn= 0.00D+00
 Coeff-Com: -0.157D-06 0.271D-05 0.651D-05-0.354D-04-0.715D-04-0.158D-03
 Coeff-Com: -0.648D-02-0.791D-02 0.535D-01 0.961D+00
 Coeff:     -0.157D-06 0.271D-05 0.651D-05-0.354D-04-0.715D-04-0.158D-03
 Coeff:     -0.648D-02-0.791D-02 0.535D-01 0.961D+00
 Gap=     0.241 Goal=   None    Shift=    0.000
 RMSDP=2.15D-08 MaxDP=8.59D-07 DE=-8.02D-10 OVMax= 8.12D-07

 Cycle  11  Pass 1  IDiag  1:
 RMSU=  9.38D-09    CP:  9.08D-01  9.11D-01  9.58D-01  8.00D-01  6.08D-01
                    CP:  8.20D-01  1.01D+00  1.03D+00  7.99D-01  1.07D+00
 E= -248.064416350550     Delta-E=       -0.000000000008 Rises=F Damp=F
 DIIS: error= 3.96D-08 at cycle  11 NSaved=  11.
 NSaved=11 IEnMin=11 EnMin= -248.064416350550     IErMin=11 ErrMin= 3.96D-08
 ErrMax= 3.96D-08  0.00D+00 EMaxC= 1.00D-01 BMatC= 2.92D-13 BMatP= 7.79D-12
 IDIUse=1 WtCom= 1.00D+00 WtEn= 0.00D+00
 Coeff-Com: -0.854D-06 0.190D-05 0.119D-04 0.219D-04 0.179D-04 0.896D-04
 Coeff-Com: -0.915D-03-0.110D-01-0.103D-01 0.933D-01 0.929D+00
 Coeff:     -0.854D-06 0.190D-05 0.119D-04 0.219D-04 0.179D-04 0.896D-04
 Coeff:     -0.915D-03-0.110D-01-0.103D-01 0.933D-01 0.929D+00
 Gap=     0.241 Goal=   None    Shift=    0.000
 RMSDP=4.42D-09 MaxDP=1.51D-07 DE=-7.90D-12 OVMax= 2.81D-07

 SCF Done:  E(RPBE1PBE) =  -248.064416351     A.U. after   11 cycles
            NFock= 11  Conv=0.44D-08     -V/T= 2.0041
 KE= 2.470475119521D+02 PE=-9.908561637890D+02 EE= 2.886141154029D+02
 Leave Link  502 at Fri Dec 20 18:19:30 2019, MaxMem=   536870912 cpu:             112.5 elap:               7.1
 (Enter /software/sse/easybuild/prefix/software/Gaussian/16.B.01-avx2-nsc1-bdist/g16/l801.exe)
 DoSCS=F DFT=T ScalE2(SS,OS)=  1.000000  1.000000
 ExpMin= 3.60D-02 ExpMax= 6.29D+03 ExpMxC= 9.49D+02 IAcc=3 IRadAn=         5 AccDes= 0.00D+00
 HarFok:  IExCor=  205 AccDes= 0.00D+00 IRadAn=         5 IDoV=-2 UseB2=F ITyADJ=14
 ICtDFT= 12500011 ScaDFX=  1.000000  1.000000  1.000000  1.000000
 Largest valence mixing into a core orbital is  5.72D-05
 Largest core mixing into a valence orbital is  1.45D-05
 Range of M.O.s used for correlation:     7   279
 NBasis=   279 NAE=    21 NBE=    21 NFC=     6 NFV=     0
 NROrb=    273 NOA=    15 NOB=    15 NVA=   258 NVB=   258

 **** Warning!!: The largest alpha MO coefficient is  0.12009349D+03

 Leave Link  801 at Fri Dec 20 18:19:31 2019, MaxMem=   536870912 cpu:               1.3 elap:               0.2
 (Enter /software/sse/easybuild/prefix/software/Gaussian/16.B.01-avx2-nsc1-bdist/g16/l914.exe)
 RHF ground state
 Two-electron integrals replicated using symmetry.
 MDV=   536870912 DFT=T DoStab=F Mixed=T DoRPA=T DoScal=F NonHer=T
 Making orbital integer symmetry assigments:
 Orbital symmetries:
       Occupied  (A1) (B2) (A1) (A1) (B2) (A1) (A1) (A1) (B2) (B2)
                 (A1) (A1) (B2) (A1) (B2) (B1) (A1) (B2) (B1) (A2)
                 (A1)
       Virtual   (B1) (A2) (A1) (B2) (A1) (B2) (A1) (B1) (A1) (B1)
                 (A2) (A1) (B2) (A1) (B2) (A1) (B1) (B2) (A2) (B2)
                 (A1) (A1) (B2) (A1) (B1) (B2) (B2) (A1) (A1) (A1)
                 (B1) (A1) (B2) (B2) (A1) (A1) (B2) (A1) (B2) (A1)
                 (B2) (B1) (A1) (B2) (A1) (B2) (B1) (A2) (A1) (B2)
                 (B1) (A1) (A2) (A1) (A1) (B1) (B2) (A2) (B2) (A2)
                 (A1) (B1) (A1) (B2) (B2) (A1) (A1) (B2) (A2) (A1)
                 (B1) (B2) (A1) (B1) (B2) (A1) (B1) (A1) (B2) (B1)
                 (A2) (B2) (A1) (A2) (B1) (A1) (B2) (A1) (B1) (B2)
                 (A1) (B2) (A1) (B2) (A2) (B2) (A2) (B1) (A1) (A1)
                 (A1) (B2) (A1) (B2) (B1) (A1) (A1) (B2) (A2) (B2)
                 (A1) (B2) (A1) (B2) (A1) (B2) (A1) (A2) (A1) (B2)
                 (B1) (B2) (A1) (B1) (A2) (B1) (A2) (A1) (B2) (A1)
                 (B1) (B2) (A2) (B1) (A1) (A2) (B1) (B2) (B1) (A1)
                 (B2) (B1) (A1) (A1) (B2) (B1) (B2) (A2) (B1) (A2)
                 (A1) (B2) (A2) (A1) (B2) (A1) (A2) (B1) (A1) (B1)
                 (B2) (A2) (A1) (B2) (A2) (A1) (B1) (B2) (B1) (A1)
                 (A2) (B2) (A1) (B2) (A1) (A2) (B2) (A1) (B2) (A1)
                 (B1) (A2) (A1) (B1) (A1) (B1) (B2) (A2) (B1) (A2)
                 (B2) (A1) (B1) (A1) (B2) (A1) (B2) (A2) (B2) (B2)
                 (B1) (A1) (B2) (A1) (B1) (A1) (A1) (B2) (A1) (A2)
                 (B2) (A1) (B1) (B2) (A2) (B1) (B1) (A2) (A1) (A1)
                 (B2) (B2) (A1) (B1) (B2) (A2) (B2) (A1) (B1) (B2)
                 (A1) (A2) (B1) (A1) (A2) (B2) (B1) (B2) (A1) (A1)
                 (A1) (A1) (B2) (A1) (B2) (B2) (A1) (A1) (B2) (B2)
                 (A1) (B2) (A1) (B2) (A1) (B2) (A1) (A1)
    20 initial guesses have been made.
 Convergence on wavefunction:    0.000001000000000
 Davidson Disk Diagonalization:  ConvIn= 1.00D-06 SkipCon=T Conv= 1.00D-06.
 Max sub-space:  2000 roots to seek:    20 dimension of matrix:         7740
 Iteration     1 Dimension    20 NMult     0 NNew     20
 CISAX will form    20 AO SS matrices at one time.
 NMat=    20 NSing=    20 JSym2X=-1.
 FoFJK:  IHMeth= 1 ICntrl=       0 DoSepK=F KAlg= 0 I1Cent=           0 FoldK=F
 IRaf= 990000000 NMat=      40 IRICut=      50 DoRegI=T DoRafI=T ISym2E=-1 IDoP0=3 IntGTp=3.
 FoFCou: FMM=F IPFlag=           0 FMFlag=      100000 FMFlg1=           0
         NFxFlg=           0 DoJE=F BraDBF=F KetDBF=F FulRan=T
         wScrn=  0.000000 ICntrl=         0 IOpCl=  0 I1Cent=           0 NGrid=           0
         NMat0=   40 NMatS0=     20 NMatT0=    0 NMatD0=   40 NMtDS0=    0 NMtDT0=    0
 Petite list used in FoFCou.
 Raff kept on since  98.85% of shell-pairs survive, threshold=   0.20 IRatSp=99.
 New state      2 was old state      3
 New state      3 was old state      2
 New state      4 was old state      5
 New state      5 was old state      7
 Excitation Energies [eV] at current iteration:
 Root      1 :     4.992952711965232
 Root      2 :     5.238110322887191
 Root      3 :     5.818773026499010
 Root      4 :     6.570337159686728
 Root      5 :     6.709043894706324
 Root      6 :     7.069136172031993
 Root      7 :     7.127602382603280
 Root      8 :     7.231681363613736
 Root      9 :     7.314489209196411
 Root     10 :     7.421605129191212
 Root     11 :     7.467849036621614
 Root     12 :     7.775595169284588
 Root     13 :     7.988885091502639
 Root     14 :     7.994817412638564
 Root     15 :     8.023674032265987
 Root     16 :     8.094315645595028
 Root     17 :     8.181370257956255
 Root     18 :     8.198205169064412
 Root     19 :     8.703297473450629
 Root     20 :     8.974077619943364
 Iteration     2 Dimension    30 NMult    20 NNew     10
 CISAX will form    10 AO SS matrices at one time.
 NMat=    10 NSing=    10 JSym2X=-1.
 Root      1 not converged, maximum delta is    0.039433470073137
 Root      2 not converged, maximum delta is    0.028461895448019
 Root      3 not converged, maximum delta is    0.041283337612332
 Root      4 not converged, maximum delta is    0.035056014870459
 Root      5 not converged, maximum delta is    0.057152829827708
 Excitation Energies [eV] at current iteration:
 Root      1 :     4.858956853449455   Change is   -0.133995858515778
 Root      2 :     5.194015265954408   Change is   -0.044095056932784
 Root      3 :     5.658346049201909   Change is   -0.160426977297101
 Root      4 :     6.536303936512947   Change is   -0.034033223173780
 Root      5 :     6.670985811435574   Change is   -0.038058083270749
 Iteration     3 Dimension    40 NMult    30 NNew     10
 CISAX will form    10 AO SS matrices at one time.
 NMat=    10 NSing=    10 JSym2X=-1.
 Root      1 not converged, maximum delta is    0.004589642189461
 Root      2 not converged, maximum delta is    0.002960452852695
 Root      3 not converged, maximum delta is    0.019684160782988
 Root      4 not converged, maximum delta is    0.024891526505773
 Root      5 not converged, maximum delta is    0.004246416780946
 Excitation Energies [eV] at current iteration:
 Root      1 :     4.853446877069231   Change is   -0.005509976380224
 Root      2 :     5.192622187452979   Change is   -0.001393078501430
 Root      3 :     5.636738502787975   Change is   -0.021607546413934
 Root      4 :     6.531877219748599   Change is   -0.004426716764348
 Root      5 :     6.670584652149307   Change is   -0.000401159286267
 Iteration     4 Dimension    50 NMult    40 NNew     10
 CISAX will form    10 AO SS matrices at one time.
 NMat=    10 NSing=    10 JSym2X=-1.
 Root      1 not converged, maximum delta is    0.001108176888540
 Root      2 not converged, maximum delta is    0.000812907579769
 Root      3 not converged, maximum delta is    0.004528261472170
 Root      4 not converged, maximum delta is    0.266898987902087
 No map to state      5
 Excitation Energies [eV] at current iteration:
 Root      1 :     4.853038528647197   Change is   -0.000408348422034
 Root      2 :     5.192558323837956   Change is   -0.000063863615023
 Root      3 :     5.635075991656810   Change is   -0.001662511131165
 Root      4 :     6.517749765439896   Change is   -0.014127454308704
 Root      5 :     6.569526276122941
 Iteration     5 Dimension    60 NMult    50 NNew     10
 CISAX will form    10 AO SS matrices at one time.
 NMat=    10 NSing=    10 JSym2X=-1.
 Root      1 not converged, maximum delta is    0.000260079445587
 Root      2 not converged, maximum delta is    0.000171411131067
 Root      3 not converged, maximum delta is    0.000818023932082
 New state      4 was old state      5
 Root      4 not converged, maximum delta is    0.481031709133763
 New state      5 was old state      4
 Root      5 not converged, maximum delta is    0.377894798996537
 Excitation Energies [eV] at current iteration:
 Root      1 :     4.853013733216585   Change is   -0.000024795430612
 Root      2 :     5.192554408551556   Change is   -0.000003915286400
 Root      3 :     5.634985207091029   Change is   -0.000090784565781
 Root      4 :     6.417738982587720   Change is   -0.151787293535221
 Root      5 :     6.535650588536040   Change is    0.017900823096144
 Iteration     6 Dimension    70 NMult    60 NNew     10
 CISAX will form    10 AO SS matrices at one time.
 NMat=    10 NSing=    10 JSym2X=-1.
 Root      1 not converged, maximum delta is    0.000152482574500
 Root      2 not converged, maximum delta is    0.000050854738311
 Root      3 not converged, maximum delta is    0.000134737542942
 Root      4 not converged, maximum delta is    0.008730545553492
 Root      5 not converged, maximum delta is    0.008960488917675
 Excitation Energies [eV] at current iteration:
 Root      1 :     4.853012483132516   Change is   -0.000001250084069
 Root      2 :     5.192554132781272   Change is   -0.000000275770284
 Root      3 :     5.634976390632781   Change is   -0.000008816458248
 Root      4 :     6.409164091222466   Change is   -0.008574891365255
 Root      5 :     6.535293554852439   Change is   -0.000357033683601
 Iteration     7 Dimension    80 NMult    70 NNew     10
 CISAX will form    10 AO SS matrices at one time.
 NMat=    10 NSing=    10 JSym2X=-1.
 Root      1 not converged, maximum delta is    0.000019329222922
 Root      2 not converged, maximum delta is    0.000010770438725
 Root      3 not converged, maximum delta is    0.000055335300010
 Root      4 not converged, maximum delta is    0.001203644464837
 Root      5 not converged, maximum delta is    0.000758979651116
 Excitation Energies [eV] at current iteration:
 Root      1 :     4.853012418892766   Change is   -0.000000064239749
 Root      2 :     5.192554109061250   Change is   -0.000000023720021
 Root      3 :     5.634975780045136   Change is   -0.000000610587645
 Root      4 :     6.408504385914717   Change is   -0.000659705307749
 Root      5 :     6.535264614616681   Change is   -0.000028940235758
 Iteration     8 Dimension    90 NMult    80 NNew     10
 CISAX will form    10 AO SS matrices at one time.
 NMat=    10 NSing=    10 JSym2X=-1.
 Root      1 not converged, maximum delta is    0.000003213040531
 Root      2 not converged, maximum delta is    0.000001892238627
 Root      3 not converged, maximum delta is    0.000013471709453
 Root      4 not converged, maximum delta is    0.000575115737978
 Root      5 not converged, maximum delta is    0.000148548051771
 Excitation Energies [eV] at current iteration:
 Root      1 :     4.853012415919429   Change is   -0.000000002973337
 Root      2 :     5.192554107646916   Change is   -0.000000001414334
 Root      3 :     5.634975714488073   Change is   -0.000000065557063
 Root      4 :     6.408444141497488   Change is   -0.000060244417229
 Root      5 :     6.535261814430370   Change is   -0.000002800186310
 Iteration     9 Dimension   100 NMult    90 NNew     10
 CISAX will form    10 AO SS matrices at one time.
 NMat=    10 NSing=    10 JSym2X=-1.
 Root      1 has converged.
 Root      2 has converged.
 Root      3 not converged, maximum delta is    0.000003558139477
 Root      4 not converged, maximum delta is    0.000118592392793
 Root      5 not converged, maximum delta is    0.000027402783635
 Excitation Energies [eV] at current iteration:
 Root      1 :     4.853012415771192   Change is   -0.000000000148237
 Root      2 :     5.192554107580786   Change is   -0.000000000066130
 Root      3 :     5.634975710405865   Change is   -0.000000004082208
 Root      4 :     6.408437893030471   Change is   -0.000006248467017
 Root      5 :     6.535261511439286   Change is   -0.000000302991085
 Iteration    10 Dimension   106 NMult   100 NNew      6
 CISAX will form     6 AO SS matrices at one time.
 NMat=     6 NSing=     6 JSym2X=-1.
 Root      1 has converged.
 Root      2 has converged.
 Root      3 not converged, maximum delta is    0.000001131185184
 Root      4 not converged, maximum delta is    0.000034507739225
 Root      5 not converged, maximum delta is    0.000007685475360
 Excitation Energies [eV] at current iteration:
 Root      1 :     4.853012415771091   Change is   -0.000000000000102
 Root      2 :     5.192554107580754   Change is   -0.000000000000032
 Root      3 :     5.634975710059381   Change is   -0.000000000346484
 Root      4 :     6.408437218338085   Change is   -0.000000674692386
 Root      5 :     6.535261476895661   Change is   -0.000000034543625
 Iteration    11 Dimension   112 NMult   106 NNew      6
 CISAX will form     6 AO SS matrices at one time.
 NMat=     6 NSing=     6 JSym2X=-1.
 Root      1 has converged.
 Root      2 has converged.
 Root      3 has converged.
 Root      4 not converged, maximum delta is    0.000008885108841
 Root      5 not converged, maximum delta is    0.000002143386289
 Excitation Energies [eV] at current iteration:
 Root      1 :     4.853012415771176   Change is    0.000000000000085
 Root      2 :     5.192554107580691   Change is   -0.000000000000063
 Root      3 :     5.634975710033777   Change is   -0.000000000025603
 Root      4 :     6.408437176189249   Change is   -0.000000042148836
 Root      5 :     6.535261474516443   Change is   -0.000000002379218
 Iteration    12 Dimension   116 NMult   112 NNew      4
 CISAX will form     4 AO SS matrices at one time.
 NMat=     4 NSing=     4 JSym2X=-1.
 Root      1 has converged.
 Root      2 has converged.
 Root      3 has converged.
 Root      4 not converged, maximum delta is    0.000003519160506
 Root      5 has converged.
 Excitation Energies [eV] at current iteration:
 Root      1 :     4.853012415771158   Change is   -0.000000000000017
 Root      2 :     5.192554107580723   Change is    0.000000000000032
 Root      3 :     5.634975710033734   Change is   -0.000000000000044
 Root      4 :     6.408437172668960   Change is   -0.000000003520289
 Root      5 :     6.535261474294372   Change is   -0.000000000222071
 Iteration    13 Dimension   118 NMult   116 NNew      2
 CISAX will form     2 AO SS matrices at one time.
 NMat=     2 NSing=     2 JSym2X=-1.
 Root      1 has converged.
 Root      2 has converged.
 Root      3 has converged.
 Root      4 not converged, maximum delta is    0.000001203973496
 Root      5 has converged.
 Excitation Energies [eV] at current iteration:
 Root      1 :     4.853012415771176   Change is    0.000000000000017
 Root      2 :     5.192554107580675   Change is   -0.000000000000048
 Root      3 :     5.634975710033792   Change is    0.000000000000058
 Root      4 :     6.408437172418570   Change is   -0.000000000250389
 Root      5 :     6.535261474278333   Change is   -0.000000000016038
 Iteration    14 Dimension   120 NMult   118 NNew      2
 CISAX will form     2 AO SS matrices at one time.
 NMat=     2 NSing=     2 JSym2X=-1.
 Root      1 has converged.
 Root      2 has converged.
 Root      3 has converged.
 Root      4 has converged.
 Root      5 has converged.
 Excitation Energies [eV] at current iteration:
 Root      1 :     4.853012415771243   Change is    0.000000000000067
 Root      2 :     5.192554107580770   Change is    0.000000000000095
 Root      3 :     5.634975710033719   Change is   -0.000000000000073
 Root      4 :     6.408437172393748   Change is   -0.000000000024823
 Root      5 :     6.535261474276636   Change is   -0.000000000001698
 Convergence achieved on expansion vectors.
 ***********************************************************************
 Excited states from <AA,BB:AA,BB> singles matrix:
 ***********************************************************************
 
 1PDM for each excited state written to RWF  633
 Ground to excited state transition densities written to RWF  633
 Ground to excited state transition electric dipole moments (Au):
       state          X           Y           Z        Dip. S.      Osc.
         1        -0.1849      0.0000     -0.0000      0.0342      0.0041
         2         0.0000     -0.0000      0.0000      0.0000      0.0000
         3         0.0000      0.5623     -0.0000      0.3162      0.0437
         4         0.0000      0.0000     -0.3426      0.1174      0.0184
         5         0.0000     -0.0000     -0.1275      0.0163      0.0026
 Ground to excited state transition velocity dipole moments (Au):
       state          X           Y           Z        Dip. S.      Osc.
         1         0.0347     -0.0000      0.0000      0.0012      0.0045
         2        -0.0000     -0.0000     -0.0000      0.0000      0.0000
         3         0.0000     -0.1155      0.0000      0.0133      0.0430
         4        -0.0000     -0.0000      0.0806      0.0065      0.0184
         5         0.0000      0.0000      0.0310      0.0010      0.0027
 Ground to excited state transition magnetic dipole moments (Au):
       state          X           Y           Z
         1        -0.0000      0.7754     -0.0000
         2        -0.0000     -0.0000      0.0884
         3        -0.1833     -0.0000     -0.0000
         4        -0.0000     -0.0000      0.0000
         5        -0.0000      0.0000     -0.0000
 Ground to excited state transition velocity quadrupole moments (Au):
       state          XX          YY          ZZ          XY          XZ          YZ
         1        -0.0000      0.0000     -0.0000      0.0000      0.1230     -0.0000
         2        -0.0000     -0.0000      0.0000     -0.0088      0.0000      0.0000
         3        -0.0000     -0.0000     -0.0000      0.0000     -0.0000     -0.0959
         4        -0.0169     -0.0877      0.0875     -0.0000     -0.0000     -0.0000
         5         0.0390     -0.6657      0.4168     -0.0000      0.0000      0.0000
 <0|del|b> * <b|rxdel|0> + <0|del|b> * <b|delr+rdel|0>
 Rotatory Strengths (R) in cgs (10**-40 erg-esu-cm/Gauss)
       state          XX          YY          ZZ    R(velocity)    E-M Angle
         1        -0.0000     -0.0000     -0.0000     -0.0000       90.00
         2        -0.0000     -0.0000      0.0000     -0.0000       90.00
         3         0.0000     -0.0000      0.0000      0.0000       90.00
         4        -0.0000      0.0000     -0.0000      0.0000       90.00
         5        -0.0000      0.0000      0.0000     -0.0000       90.00
 1/2[<0|r|b>*<b|rxdel|0> + (<0|rxdel|b>*<b|r|0>)*]
 Rotatory Strengths (R) in cgs (10**-40 erg-esu-cm/Gauss)
       state          XX          YY          ZZ     R(length)
         1        -0.0000     -0.0000     -0.0000     -0.0000
         2         0.0000     -0.0000     -0.0000     -0.0000
         3         0.0000      0.0000     -0.0000      0.0000
         4         0.0000      0.0000      0.0000      0.0000
         5         0.0000      0.0000     -0.0000     -0.0000
  1/2[<0|del|b>*<b|r|0> + (<0|r|b>*<b|del|0>)*] (Au)
       state          X           Y           Z        Dip. S.   Osc.(frdel)
         1        -0.0064     -0.0000     -0.0000      0.0064      0.0043
         2        -0.0000      0.0000     -0.0000      0.0000      0.0000
         3         0.0000     -0.0650     -0.0000      0.0650      0.0433
         4        -0.0000     -0.0000     -0.0276      0.0276      0.0184
         5         0.0000     -0.0000     -0.0040      0.0040      0.0026

 Excitation energies and oscillator strengths:
 
 Excited State   1:      Singlet-B1     4.8530 eV  255.48 nm  f=0.0041  <S**2>=0.000
      21 -> 22         0.70430
 This state for optimization and/or second-order correction.
 Total Energy, E(TD-HF/TD-DFT) =  -247.886071426    
 Copying the excited state density for this state as the 1-particle RhoCI density.
 
 Excited State   2:      Singlet-A2     5.1926 eV  238.77 nm  f=0.0000  <S**2>=0.000
      21 -> 23         0.70573
 
 Excited State   3:      Singlet-B2     5.6350 eV  220.03 nm  f=0.0437  <S**2>=0.000
      19 -> 23        -0.34636
      20 -> 22         0.61495
 
 Excited State   4:      Singlet-A1     6.4084 eV  193.47 nm  f=0.0184  <S**2>=0.000
      19 -> 22         0.40066
      20 -> 23         0.57118
 
 Excited State   5:      Singlet-A1     6.5353 eV  189.72 nm  f=0.0026  <S**2>=0.000
      21 -> 24         0.68301
      21 -> 26         0.13971
 SavETr:  write IOETrn=   770 NScale= 10 NData=  16 NLR=1 NState=    5 LETran=     100.
 The selected state is a singlet.
 CISGrd: IGrad=1 NXY=2 DFT=T
 CISAX will form     1 AO SS matrices at one time.
 NMat=     1 NSing=     1 JSym2X=-1.
 Leave Link  914 at Fri Dec 20 18:20:40 2019, MaxMem=   536870912 cpu:            1108.8 elap:              69.5
 (Enter /software/sse/easybuild/prefix/software/Gaussian/16.B.01-avx2-nsc1-bdist/g16/l1002.exe)
 Minotr:  Closed shell wavefunction.
          Computing CIS/TDA/TD derivatives.
          Using Z-Vector for PSCF gradient.
          Skipping F1 and S1 gradient terms here.
          Frozen-core window.
          Direct CPHF calculation.
          Differentiating once with respect to electric field.
                with respect to dipole field.
          Electric field/nuclear overlap derivatives assumed to be zero.
          Requested convergence is 1.0D-10 RMS, and 1.0D-09 maximum.
          NewPWx=F KeepS1=T KeepF1=T KeepIn=T MapXYZ=F SortEE=F KeepMc=T.
 Two-electron integral symmetry used by symmetrizing perturbed Fock matrices.
          MDV=     536870912 using IRadAn=       5.
          Solving linear equations separately, MaxMat=     384.
          There are     1 degrees of freedom in the 1st order CPHF.  IDoFFX=0 NUNeed=     1.
 FoFJK:  IHMeth= 1 ICntrl=       0 DoSepK=F KAlg= 0 I1Cent=           0 FoldK=F
 IRaf= 990000000 NMat=       1 IRICut=       1 DoRegI=T DoRafI=F ISym2E=-1 IDoP0=0 IntGTp=1.
 FoFCou: FMM=F IPFlag=           0 FMFlag=      100000 FMFlg1=           0
         NFxFlg=           0 DoJE=F BraDBF=F KetDBF=F FulRan=T
         wScrn=  0.000000 ICntrl=         0 IOpCl=  0 I1Cent=           0 NGrid=           0
         NMat0=    1 NMatS0=      1 NMatT0=    0 NMatD0=    1 NMtDS0=    0 NMtDT0=    0
 Petite list used in FoFCou.
 LinEq1:  Iter=  0 NonCon=     1 RMS=1.80D-02 Max=9.30D-01 NDo=     1
 AX will form     1 AO Fock derivatives at one time.
 LinEq1:  Iter=  1 NonCon=     1 RMS=4.67D-03 Max=6.91D-02 NDo=     1
 LinEq1:  Iter=  2 NonCon=     1 RMS=2.40D-03 Max=1.07D-01 NDo=     1
 LinEq1:  Iter=  3 NonCon=     1 RMS=1.17D-03 Max=3.07D-02 NDo=     1
 LinEq1:  Iter=  4 NonCon=     1 RMS=3.00D-04 Max=8.44D-03 NDo=     1
 LinEq1:  Iter=  5 NonCon=     1 RMS=1.95D-04 Max=5.61D-03 NDo=     1
 LinEq1:  Iter=  6 NonCon=     1 RMS=3.98D-05 Max=5.77D-04 NDo=     1
 LinEq1:  Iter=  7 NonCon=     1 RMS=1.55D-05 Max=2.57D-04 NDo=     1
 LinEq1:  Iter=  8 NonCon=     1 RMS=6.21D-06 Max=8.13D-05 NDo=     1
 LinEq1:  Iter=  9 NonCon=     1 RMS=1.18D-06 Max=2.14D-05 NDo=     1
 LinEq1:  Iter= 10 NonCon=     1 RMS=2.13D-07 Max=3.27D-06 NDo=     1
 LinEq1:  Iter= 11 NonCon=     1 RMS=4.55D-08 Max=9.66D-07 NDo=     1
 LinEq1:  Iter= 12 NonCon=     1 RMS=7.90D-09 Max=1.14D-07 NDo=     1
 LinEq1:  Iter= 13 NonCon=     1 RMS=1.47D-09 Max=3.63D-08 NDo=     1
 LinEq1:  Iter= 14 NonCon=     1 RMS=1.77D-10 Max=2.05D-09 NDo=     1
 LinEq1:  Iter= 15 NonCon=     0 RMS=2.05D-11 Max=2.05D-10 NDo=     1
 Linear equations converged to 1.000D-10 1.000D-09 after    15 iterations.
 End of Minotr F.D. properties file   721 does not exist.
 End of Minotr F.D. properties file   722 does not exist.
 End of Minotr F.D. properties file   788 does not exist.
 Leave Link 1002 at Fri Dec 20 18:20:56 2019, MaxMem=   536870912 cpu:             245.6 elap:              15.5
 (Enter /software/sse/easybuild/prefix/software/Gaussian/16.B.01-avx2-nsc1-bdist/g16/l601.exe)
 Copying SCF densities to generalized density rwf, IOpCl= 0 IROHF=0.

 **********************************************************************

            Population analysis using the CI Density.

 **********************************************************************

 Orbital symmetries:
       Occupied  (A1) (B2) (A1) (A1) (B2) (A1) (A1) (A1) (B2) (B2)
                 (A1) (A1) (B2) (A1) (B2) (B1) (A1) (B2) (B1) (A2)
                 (A1)
       Virtual   (B1) (A2) (A1) (B2) (A1) (B2) (A1) (B1) (A1) (B1)
                 (A2) (A1) (B2) (A1) (B2) (A1) (B1) (B2) (A2) (B2)
                 (A1) (A1) (B2) (A1) (B1) (B2) (B2) (A1) (A1) (A1)
                 (B1) (A1) (B2) (B2) (A1) (A1) (B2) (A1) (B2) (A1)
                 (B2) (B1) (A1) (B2) (A1) (B2) (B1) (A2) (A1) (B2)
                 (B1) (A1) (A2) (A1) (A1) (B1) (B2) (A2) (B2) (A2)
                 (A1) (B1) (A1) (B2) (B2) (A1) (A1) (B2) (A2) (A1)
                 (B1) (B2) (A1) (B1) (B2) (A1) (B1) (A1) (B2) (B1)
                 (A2) (B2) (A1) (A2) (B1) (A1) (B2) (A1) (B1) (B2)
                 (A1) (B2) (A1) (B2) (A2) (B2) (A2) (B1) (A1) (A1)
                 (A1) (B2) (A1) (B2) (B1) (A1) (A1) (B2) (A2) (B2)
                 (A1) (B2) (A1) (B2) (A1) (B2) (A1) (A2) (A1) (B2)
                 (B1) (B2) (A1) (B1) (A2) (B1) (A2) (A1) (B2) (A1)
                 (B1) (B2) (A2) (B1) (A1) (A2) (B1) (B2) (B1) (A1)
                 (B2) (B1) (A1) (A1) (B2) (B1) (B2) (A2) (B1) (A2)
                 (A1) (B2) (A2) (A1) (B2) (A1) (A2) (B1) (A1) (B1)
                 (B2) (A2) (A1) (B2) (A2) (A1) (B1) (B2) (B1) (A1)
                 (A2) (B2) (A1) (B2) (A1) (A2) (B2) (A1) (B2) (A1)
                 (B1) (A2) (A1) (B1) (A1) (B1) (B2) (A2) (B1) (A2)
                 (B2) (A1) (B1) (A1) (B2) (A1) (B2) (A2) (B2) (B2)
                 (B1) (A1) (B2) (A1) (B1) (A1) (A1) (B2) (A1) (A2)
                 (B2) (A1) (B1) (B2) (A2) (B1) (B1) (A2) (A1) (A1)
                 (B2) (B2) (A1) (B1) (B2) (A2) (B2) (A1) (B1) (B2)
                 (A1) (A2) (B1) (A1) (A2) (B2) (B1) (B2) (A1) (A1)
                 (A1) (A1) (B2) (A1) (B2) (B2) (A1) (A1) (B2) (B2)
                 (A1) (B2) (A1) (B2) (A1) (B2) (A1) (A1)
 The electronic state is 1-A1.
 Alpha  occ. eigenvalues --  -14.38117 -10.26014 -10.26014 -10.24802 -10.23744
 Alpha  occ. eigenvalues --  -10.23741  -0.97858  -0.83692  -0.79167  -0.65587
 Alpha  occ. eigenvalues --   -0.65342  -0.55246  -0.50343  -0.48824  -0.44683
 Alpha  occ. eigenvalues --   -0.42296  -0.42251  -0.38024  -0.30901  -0.28250
 Alpha  occ. eigenvalues --   -0.27369
 Alpha virt. eigenvalues --   -0.03268  -0.01941  -0.00052   0.01620   0.02330
 Alpha virt. eigenvalues --    0.04207   0.04959   0.06180   0.06850   0.09341
 Alpha virt. eigenvalues --    0.09372   0.09379   0.10271   0.11788   0.12409
 Alpha virt. eigenvalues --    0.12687   0.12916   0.13282   0.14727   0.14842
 Alpha virt. eigenvalues --    0.15250   0.15673   0.16137   0.16497   0.16831
 Alpha virt. eigenvalues --    0.21267   0.22038   0.22328   0.23406   0.24911
 Alpha virt. eigenvalues --    0.25483   0.27412   0.28239   0.29413   0.30040
 Alpha virt. eigenvalues --    0.30520   0.31119   0.33681   0.36099   0.36607
 Alpha virt. eigenvalues --    0.36652   0.44010   0.46761   0.48708   0.52592
 Alpha virt. eigenvalues --    0.52999   0.53306   0.53515   0.53975   0.56196
 Alpha virt. eigenvalues --    0.57043   0.57886   0.60858   0.60930   0.62272
 Alpha virt. eigenvalues --    0.62287   0.63191   0.65070   0.66767   0.69045
 Alpha virt. eigenvalues --    0.69951   0.70826   0.71976   0.73684   0.75039
 Alpha virt. eigenvalues --    0.75128   0.78500   0.78871   0.79035   0.80489
 Alpha virt. eigenvalues --    0.81802   0.81837   0.84388   0.90123   0.92394
 Alpha virt. eigenvalues --    0.93803   0.95616   0.96508   1.01122   1.04463
 Alpha virt. eigenvalues --    1.05398   1.06466   1.10294   1.11595   1.13090
 Alpha virt. eigenvalues --    1.17332   1.17971   1.20661   1.28005   1.28140
 Alpha virt. eigenvalues --    1.28546   1.32014   1.33146   1.34009   1.36220
 Alpha virt. eigenvalues --    1.37020   1.39311   1.40774   1.41318   1.42364
 Alpha virt. eigenvalues --    1.45769   1.45858   1.50227   1.59637   1.66535
 Alpha virt. eigenvalues --    1.67084   1.69738   1.73548   1.74405   1.76680
 Alpha virt. eigenvalues --    1.85978   1.86763   1.98047   1.99549   2.06437
 Alpha virt. eigenvalues --    2.08109   2.23763   2.45943   2.46814   2.56009
 Alpha virt. eigenvalues --    2.56501   2.59134   2.60440   2.64512   2.68395
 Alpha virt. eigenvalues --    2.69453   2.69512   2.75015   2.77860   2.78463
 Alpha virt. eigenvalues --    2.78740   2.79968   2.81215   2.82419   2.82758
 Alpha virt. eigenvalues --    2.85841   2.86925   2.87532   2.90349   2.93102
 Alpha virt. eigenvalues --    2.96471   3.00632   3.00968   3.02526   3.02821
 Alpha virt. eigenvalues --    3.03884   3.06418   3.07829   3.10575   3.11574
 Alpha virt. eigenvalues --    3.12058   3.19033   3.20936   3.23051   3.23154
 Alpha virt. eigenvalues --    3.26322   3.26451   3.29040   3.30278   3.32751
 Alpha virt. eigenvalues --    3.32859   3.33642   3.33904   3.35309   3.35761
 Alpha virt. eigenvalues --    3.38632   3.43713   3.43969   3.45451   3.47020
 Alpha virt. eigenvalues --    3.49414   3.50813   3.52380   3.52443   3.55189
 Alpha virt. eigenvalues --    3.57631   3.60831   3.64767   3.65897   3.67501
 Alpha virt. eigenvalues --    3.71842   3.76866   3.80125   3.83163   3.85949
 Alpha virt. eigenvalues --    3.87183   3.88762   3.89651   3.92128   3.94305
 Alpha virt. eigenvalues --    3.96427   3.97410   3.98733   4.00356   4.04516
 Alpha virt. eigenvalues --    4.06864   4.08948   4.13459   4.14458   4.15731
 Alpha virt. eigenvalues --    4.16103   4.16913   4.24021   4.26057   4.28970
 Alpha virt. eigenvalues --    4.29531   4.33194   4.33739   4.40928   4.46815
 Alpha virt. eigenvalues --    4.49342   4.54724   4.55884   4.62533   4.64831
 Alpha virt. eigenvalues --    4.66147   4.71684   4.78656   4.79214   4.82685
 Alpha virt. eigenvalues --    4.84256   4.86855   4.89170   4.90037   4.97967
 Alpha virt. eigenvalues --    5.00889   5.00972   5.05702   5.12902   5.17996
 Alpha virt. eigenvalues --    5.19152   5.19422   5.23906   5.24782   5.29341
 Alpha virt. eigenvalues --    5.41293   5.44695   5.45686   5.55270   5.70986
 Alpha virt. eigenvalues --    5.75373   5.86608   5.87008   5.98231   6.00373
 Alpha virt. eigenvalues --    6.15380   6.21720   6.35388   6.36115   6.55083
 Alpha virt. eigenvalues --    6.68709   7.05739  24.59177  24.87169  25.01271
 Alpha virt. eigenvalues --   25.15447  25.37669  36.16285
     Molecular Orbital Coefficients:
                           1         2         3         4         5
                        (A1)--O   (B2)--O   (A1)--O   (A1)--O   (B2)--O
     Eigenvalues --   -14.38117 -10.26014 -10.26014 -10.24802 -10.23744
   1 1   C  1S         -0.00001   0.39837   0.39838  -0.00031   0.00557
   2        2S          0.00012   0.32681   0.32679  -0.00025   0.00446
   3        2PX         0.00000   0.00000   0.00000   0.00000   0.00000
   4        2PY        -0.00037  -0.00022  -0.00026   0.00004   0.00000
   5        2PZ         0.00027   0.00004  -0.00005  -0.00021   0.00053
   6        3S          0.00043   0.01793   0.01724  -0.00059  -0.00069
   7        3PX         0.00000   0.00000   0.00000   0.00000   0.00000
   8        3PY         0.00127   0.00137   0.00100  -0.00052  -0.00018
   9        3PZ        -0.00072   0.00169   0.00252   0.00092  -0.00258
  10        4S          0.00911   0.02184   0.04447   0.00871   0.00635
  11        4PX         0.00000   0.00000   0.00000   0.00000   0.00000
  12        4PY        -0.00567   0.00056  -0.00744  -0.00394   0.00069
  13        4PZ        -0.00049   0.00793  -0.00412  -0.00213  -0.00425
  14        5S         -0.00009  -0.03747  -0.00007  -0.01385  -0.02481
  15        5PX         0.00000   0.00000   0.00000   0.00000   0.00000
  16        5PY        -0.00219   0.01187  -0.00044  -0.00033   0.00676
  17        5PZ         0.00029   0.01067   0.00229   0.00169   0.00453
  18        6D 0       -0.00000   0.00040   0.00040  -0.00003   0.00030
  19        6D+1        0.00000   0.00000   0.00000   0.00000   0.00000
  20        6D-1        0.00010   0.00012  -0.00001   0.00007   0.00004
  21        6D+2        0.00025  -0.00115  -0.00109   0.00006   0.00004
  22        6D-2        0.00000   0.00000   0.00000   0.00000   0.00000
  23        7D 0       -0.00032   0.00060   0.00314  -0.00031   0.00308
  24        7D+1        0.00000   0.00000   0.00000   0.00000   0.00000
  25        7D-1        0.00651   0.00123  -0.00159  -0.00394   0.00004
  26        7D+2       -0.00007  -0.00365  -0.00396  -0.00107   0.00042
  27        7D-2        0.00000   0.00000   0.00000   0.00000   0.00000
  28        8F 0        0.00052  -0.00136  -0.00129  -0.00004  -0.00079
  29        8F+1        0.00000   0.00000   0.00000   0.00000   0.00000
  30        8F-1        0.00038   0.00045  -0.00004  -0.00002   0.00010
  31        8F+2        0.00080  -0.00124  -0.00137  -0.00011  -0.00000
  32        8F-2        0.00000   0.00000   0.00000   0.00000   0.00000
  33        8F+3        0.00000   0.00000   0.00000   0.00000   0.00000
  34        8F-3       -0.00040  -0.00005  -0.00009   0.00003  -0.00002
  35 2   C  1S         -0.00001  -0.39837   0.39838  -0.00031  -0.00557
  36        2S          0.00012  -0.32681   0.32679  -0.00025  -0.00446
  37        2PX         0.00000   0.00000   0.00000   0.00000   0.00000
  38        2PY         0.00037  -0.00022   0.00026  -0.00004   0.00000
  39        2PZ         0.00027  -0.00004  -0.00005  -0.00021  -0.00053
  40        3S          0.00043  -0.01793   0.01724  -0.00059   0.00069
  41        3PX         0.00000   0.00000   0.00000   0.00000   0.00000
  42        3PY        -0.00127   0.00137  -0.00100   0.00052  -0.00018
  43        3PZ        -0.00072  -0.00169   0.00252   0.00092   0.00258
  44        4S          0.00911  -0.02184   0.04447   0.00871  -0.00635
  45        4PX         0.00000   0.00000   0.00000   0.00000   0.00000
  46        4PY         0.00567   0.00056   0.00744   0.00394   0.00069
  47        4PZ        -0.00049  -0.00793  -0.00412  -0.00213   0.00425
  48        5S         -0.00009   0.03747  -0.00007  -0.01385   0.02481
  49        5PX         0.00000   0.00000   0.00000   0.00000   0.00000
  50        5PY         0.00219   0.01187   0.00044   0.00033   0.00676
  51        5PZ         0.00029  -0.01067   0.00229   0.00169  -0.00453
  52        6D 0       -0.00000  -0.00040   0.00040  -0.00003  -0.00030
  53        6D+1        0.00000   0.00000   0.00000   0.00000   0.00000
  54        6D-1       -0.00010   0.00012   0.00001  -0.00007   0.00004
  55        6D+2        0.00025   0.00115  -0.00109   0.00006  -0.00004
  56        6D-2        0.00000   0.00000   0.00000   0.00000   0.00000
  57        7D 0       -0.00032  -0.00060   0.00314  -0.00031  -0.00308
  58        7D+1        0.00000   0.00000   0.00000   0.00000   0.00000
  59        7D-1       -0.00651   0.00123   0.00159   0.00394   0.00004
  60        7D+2       -0.00007   0.00365  -0.00396  -0.00107  -0.00042
  61        7D-2        0.00000   0.00000   0.00000   0.00000   0.00000
  62        8F 0        0.00052   0.00136  -0.00129  -0.00004   0.00079
  63        8F+1        0.00000   0.00000   0.00000   0.00000   0.00000
  64        8F-1       -0.00038   0.00045   0.00004   0.00002   0.00010
  65        8F+2        0.00080   0.00124  -0.00137  -0.00011   0.00000
  66        8F-2        0.00000   0.00000   0.00000   0.00000   0.00000
  67        8F+3        0.00000   0.00000   0.00000   0.00000   0.00000
  68        8F-3        0.00040  -0.00005   0.00009  -0.00003  -0.00002
  69 3   C  1S          0.00001  -0.00547   0.00521   0.01649   0.39833
  70        2S         -0.00001  -0.00461   0.00448   0.01378   0.32685
  71        2PX         0.00000   0.00000   0.00000   0.00000   0.00000
  72        2PY         0.00006   0.00003   0.00016   0.00071   0.00003
  73        2PZ         0.00012  -0.00058   0.00052  -0.00041   0.00008
  74        3S          0.00070  -0.00133   0.00009   0.00114   0.01813
  75        3PX         0.00000   0.00000   0.00000   0.00000   0.00000
  76        3PY        -0.00010  -0.00027  -0.00210  -0.00447  -0.00206
  77        3PZ        -0.00010   0.00348  -0.00313   0.00174  -0.00158
  78        4S         -0.01174   0.00439  -0.03024  -0.01743   0.02119
  79        4PX         0.00000   0.00000   0.00000   0.00000   0.00000
  80        4PY        -0.00866   0.00181  -0.01209  -0.00783  -0.00360
  81        4PZ        -0.00136  -0.00051  -0.00954   0.00072  -0.00129
  82        5S         -0.00646  -0.03177  -0.01676   0.03658  -0.03403
  83        5PX         0.00000   0.00000   0.00000   0.00000   0.00000
  84        5PY        -0.00461  -0.00636  -0.00745   0.00844  -0.01178
  85        5PZ        -0.00101  -0.00747  -0.00003   0.00274  -0.00371
  86        6D 0        0.00000   0.00034  -0.00031   0.00010   0.00048
  87        6D+1        0.00000   0.00000   0.00000   0.00000   0.00000
  88        6D-1        0.00024   0.00009   0.00001   0.00039   0.00025
  89        6D+2       -0.00006   0.00007  -0.00007   0.00022  -0.00108
  90        6D-2        0.00000   0.00000   0.00000   0.00000   0.00000
  91        7D 0        0.00103   0.00382  -0.00540   0.00021  -0.00119
  92        7D+1        0.00000   0.00000   0.00000   0.00000   0.00000
  93        7D-1       -0.00505   0.00002   0.00339   0.00638   0.00198
  94        7D+2        0.00153   0.00074  -0.00116   0.00216  -0.00417
  95        7D-2        0.00000   0.00000   0.00000   0.00000   0.00000
  96        8F 0        0.00010   0.00077  -0.00071  -0.00048   0.00124
  97        8F+1        0.00000   0.00000   0.00000   0.00000   0.00000
  98        8F-1        0.00007   0.00000  -0.00028  -0.00018   0.00009
  99        8F+2        0.00017   0.00006  -0.00003  -0.00074   0.00114
 100        8F-2        0.00000   0.00000   0.00000   0.00000   0.00000
 101        8F+3        0.00000   0.00000   0.00000   0.00000   0.00000
 102        8F-3        0.00004  -0.00007   0.00003   0.00054   0.00027
 103 4   C  1S         -0.00002   0.00000   0.00014   0.56290   0.00000
 104        2S          0.00011   0.00000   0.00011   0.46192   0.00000
 105        2PX         0.00000   0.00000   0.00000   0.00000   0.00000
 106        2PY         0.00000   0.00020   0.00000   0.00000  -0.00097
 107        2PZ        -0.00007   0.00000   0.00010   0.00020   0.00000
 108        3S         -0.00210   0.00000  -0.00056   0.02518   0.00000
 109        3PX         0.00000   0.00000   0.00000   0.00000   0.00000
 110        3PY         0.00000  -0.00062   0.00000   0.00000   0.00503
 111        3PZ        -0.00039   0.00000   0.00008  -0.00383   0.00000
 112        4S          0.01783   0.00000   0.02419   0.03723   0.00000
 113        4PX         0.00000   0.00000   0.00000   0.00000   0.00000
 114        4PY         0.00000   0.00346   0.00000   0.00000   0.00563
 115        4PZ         0.00680   0.00000   0.01245  -0.00085   0.00000
 116        5S          0.01401   0.00000   0.03667  -0.04985   0.00000
 117        5PX         0.00000   0.00000   0.00000   0.00000   0.00000
 118        5PY         0.00000   0.00059   0.00000   0.00000  -0.00693
 119        5PZ         0.00559   0.00000   0.01359  -0.01504   0.00000
 120        6D 0        0.00003   0.00000   0.00011   0.00124   0.00000
 121        6D+1        0.00000   0.00000   0.00000   0.00000   0.00000
 122        6D-1        0.00000   0.00012   0.00000   0.00000   0.00055
 123        6D+2        0.00012   0.00000   0.00007  -0.00115   0.00000
 124        6D-2        0.00000   0.00000   0.00000   0.00000   0.00000
 125        7D 0        0.00396   0.00000  -0.00493   0.00324   0.00000
 126        7D+1        0.00000   0.00000   0.00000   0.00000   0.00000
 127        7D-1        0.00000  -0.00314   0.00000   0.00000   0.00624
 128        7D+2        0.00116   0.00000  -0.00374  -0.00341   0.00000
 129        7D-2        0.00000   0.00000   0.00000   0.00000   0.00000
 130        8F 0        0.00002   0.00000  -0.00021  -0.00222   0.00000
 131        8F+1        0.00000   0.00000   0.00000   0.00000   0.00000
 132        8F-1        0.00000   0.00005   0.00000   0.00000   0.00023
 133        8F+2       -0.00002   0.00000  -0.00019  -0.00122   0.00000
 134        8F-2        0.00000   0.00000   0.00000   0.00000   0.00000
 135        8F+3        0.00000   0.00000   0.00000   0.00000   0.00000
 136        8F-3        0.00000   0.00009   0.00000   0.00000  -0.00069
 137 5   C  1S          0.00001   0.00547   0.00521   0.01649  -0.39833
 138        2S         -0.00001   0.00461   0.00448   0.01378  -0.32685
 139        2PX         0.00000   0.00000   0.00000   0.00000   0.00000
 140        2PY        -0.00006   0.00003  -0.00016  -0.00071   0.00003
 141        2PZ         0.00012   0.00058   0.00052  -0.00041  -0.00008
 142        3S          0.00070   0.00133   0.00009   0.00114  -0.01813
 143        3PX         0.00000   0.00000   0.00000   0.00000   0.00000
 144        3PY         0.00010  -0.00027   0.00210   0.00447  -0.00206
 145        3PZ        -0.00010  -0.00348  -0.00313   0.00174   0.00158
 146        4S         -0.01174  -0.00439  -0.03024  -0.01743  -0.02119
 147        4PX         0.00000   0.00000   0.00000   0.00000   0.00000
 148        4PY         0.00866   0.00181   0.01209   0.00783  -0.00360
 149        4PZ        -0.00136   0.00051  -0.00954   0.00072   0.00129
 150        5S         -0.00646   0.03177  -0.01676   0.03658   0.03403
 151        5PX         0.00000   0.00000   0.00000   0.00000   0.00000
 152        5PY         0.00461  -0.00636   0.00745  -0.00844  -0.01178
 153        5PZ        -0.00101   0.00747  -0.00003   0.00274   0.00371
 154        6D 0        0.00000  -0.00034  -0.00031   0.00010  -0.00048
 155        6D+1        0.00000   0.00000   0.00000   0.00000   0.00000
 156        6D-1       -0.00024   0.00009  -0.00001  -0.00039   0.00025
 157        6D+2       -0.00006  -0.00007  -0.00007   0.00022   0.00108
 158        6D-2        0.00000   0.00000   0.00000   0.00000   0.00000
 159        7D 0        0.00103  -0.00382  -0.00540   0.00021   0.00119
 160        7D+1        0.00000   0.00000   0.00000   0.00000   0.00000
 161        7D-1        0.00505   0.00002  -0.00339  -0.00638   0.00198
 162        7D+2        0.00153  -0.00074  -0.00116   0.00216   0.00417
 163        7D-2        0.00000   0.00000   0.00000   0.00000   0.00000
 164        8F 0        0.00010  -0.00077  -0.00071  -0.00048  -0.00124
 165        8F+1        0.00000   0.00000   0.00000   0.00000   0.00000
 166        8F-1       -0.00007   0.00000   0.00028   0.00018   0.00009
 167        8F+2        0.00017  -0.00006  -0.00003  -0.00074  -0.00114
 168        8F-2        0.00000   0.00000   0.00000   0.00000   0.00000
 169        8F+3        0.00000   0.00000   0.00000   0.00000   0.00000
 170        8F-3       -0.00004  -0.00007  -0.00003  -0.00054   0.00027
 171 6   H  1S         -0.00008   0.00026   0.00021  -0.00005  -0.00009
 172        2S         -0.00427  -0.01302  -0.01075   0.00206   0.00077
 173        3S          0.00195  -0.00588  -0.00175   0.00147  -0.00048
 174        4S          0.00101  -0.00579  -0.00059   0.00157  -0.00219
 175        5PX         0.00000   0.00000   0.00000   0.00000   0.00000
 176        5PY        -0.00004   0.00081   0.00084   0.00003  -0.00000
 177        5PZ        -0.00003   0.00057   0.00056   0.00005  -0.00000
 178        6PX         0.00000   0.00000   0.00000   0.00000   0.00000
 179        6PY         0.00196   0.00538   0.00512  -0.00106   0.00000
 180        6PZ        -0.00018   0.00319   0.00296   0.00027  -0.00081
 181        7D 0        0.00025   0.00019   0.00007  -0.00013   0.00009
 182        7D+1        0.00000   0.00000   0.00000   0.00000   0.00000
 183        7D-1        0.00005  -0.00125  -0.00112   0.00002   0.00011
 184        7D+2        0.00004   0.00086   0.00095  -0.00004   0.00001
 185        7D-2        0.00000   0.00000   0.00000   0.00000   0.00000
 186 7   H  1S         -0.00008  -0.00026   0.00021  -0.00005   0.00009
[...]
  34         (B2)--V           0.102711          0.229825
  35         (A1)--V           0.117879          0.500302
  36         (B2)--V           0.124086          0.397819
  37         (A1)--V           0.126870          0.376004
  38         (B1)--V           0.129160          0.912712
  39         (B2)--V           0.132815          0.352180
  40         (A2)--V           0.147274          0.384893
  41         (B2)--V           0.148419          0.363491
  42         (A1)--V           0.152503          0.365247
  43         (A1)--V           0.156733          0.418183
  44         (B2)--V           0.161370          0.348043
  45         (A1)--V           0.164968          0.397363
  46         (B1)--V           0.168306          1.084209
  47         (B2)--V           0.212671          0.340268
  48         (B2)--V           0.220385          0.339819
  49         (A1)--V           0.223282          0.448527
  50         (A1)--V           0.234062          0.700407
  51         (A1)--V           0.249111          0.864521
  52         (B1)--V           0.254831          0.545836
  53         (A1)--V           0.274119          0.724801
  54         (B2)--V           0.282385          1.043270
  55         (B2)--V           0.294131          1.295582
  56         (A1)--V           0.300399          0.942898
  57         (A1)--V           0.305200          1.130401
  58         (B2)--V           0.311189          0.768093
  59         (A1)--V           0.336806          1.091788
  60         (B2)--V           0.360992          1.059170
  61         (A1)--V           0.366068          1.311210
  62         (B2)--V           0.366518          1.350671
  63         (B1)--V           0.440102          0.958128
  64         (A1)--V           0.467611          1.128335
  65         (B2)--V           0.487078          1.307124
  66         (A1)--V           0.525921          1.917740
  67         (B2)--V           0.529993          1.461914
  68         (B1)--V           0.533058          1.336175
  69         (A2)--V           0.535153          1.233311
  70         (A1)--V           0.539754          1.509086
  71         (B2)--V           0.561956          1.686420
  72         (B1)--V           0.570434          1.409327
  73         (A1)--V           0.578857          1.553057
  74         (A2)--V           0.608579          1.452925
  75         (A1)--V           0.609298          1.304294
  76         (A1)--V           0.622719          1.509885
  77         (B1)--V           0.622874          1.543758
  78         (B2)--V           0.631914          1.381659
  79         (A2)--V           0.650699          1.271124
  80         (B2)--V           0.667669          1.685805
  81         (A2)--V           0.690446          1.220834
  82         (A1)--V           0.699513          1.604955
  83         (B1)--V           0.708256          1.242616
  84         (A1)--V           0.719757          1.736863
  85         (B2)--V           0.736839          1.960813
  86         (B2)--V           0.750391          1.723187
  87         (A1)--V           0.751279          1.618134
  88         (A1)--V           0.784995          1.622492
  89         (B2)--V           0.788713          1.574449
  90         (A2)--V           0.790350          1.332142
  91         (A1)--V           0.804894          2.207530
  92         (B1)--V           0.818018          1.530965
  93         (B2)--V           0.818375          2.032724
  94         (A1)--V           0.843878          1.839619
  95         (B1)--V           0.901229          1.750138
  96         (B2)--V           0.923937          1.483270
  97         (A1)--V           0.938032          1.466297
  98         (B1)--V           0.956161          1.419089
  99         (A1)--V           0.965077          1.920327
 100         (B2)--V           1.011223          1.468717
 101         (B1)--V           1.044628          1.522967
 102         (A2)--V           1.053976          1.586756
 103         (B2)--V           1.064658          1.613382
 104         (A1)--V           1.102941          1.820131
 105         (A2)--V           1.115952          1.620378
 106         (B1)--V           1.130897          1.634704
 107         (A1)--V           1.173324          1.699137
 108         (B2)--V           1.179711          1.678135
 109         (A1)--V           1.206610          1.910458
 110         (B1)--V           1.280049          2.050081
 111         (B2)--V           1.281400          2.073918
 112         (A1)--V           1.285457          2.196616
 113         (B2)--V           1.320138          2.195772
 114         (A1)--V           1.331462          2.365307
 115         (B2)--V           1.340092          2.379991
 116         (A2)--V           1.362196          2.090007
 117         (B2)--V           1.370204          2.492742
 118         (A2)--V           1.393114          1.922554
 119         (B1)--V           1.407742          1.995332
 120         (A1)--V           1.413177          2.837980
 121         (A1)--V           1.423636          2.693328
 122         (A1)--V           1.457694          2.649784
 123         (B2)--V           1.458583          2.233731
 124         (A1)--V           1.502272          2.717417
 125         (B2)--V           1.596370          2.992994
 126         (B1)--V           1.665350          2.499164
 127         (A1)--V           1.670840          3.136803
 128         (A1)--V           1.697378          3.044563
 129         (B2)--V           1.735482          2.915067
 130         (A2)--V           1.744054          2.414923
 131         (B2)--V           1.766800          2.762370
 132         (A1)--V           1.859779          2.878689
 133         (B2)--V           1.867630          2.942329
 134         (A1)--V           1.980465          2.867660
 135         (B2)--V           1.995490          3.075900
 136         (A1)--V           2.064366          3.899946
 137         (B2)--V           2.081094          3.368839
 138         (A1)--V           2.237634          3.312719
 139         (A2)--V           2.459433          3.642862
 140         (A1)--V           2.468143          3.615294
 141         (B2)--V           2.560087          3.987411
 142         (B1)--V           2.565013          4.182754
 143         (B2)--V           2.591344          4.044663
 144         (A1)--V           2.604398          3.995428
 145         (B1)--V           2.645116          4.741004
 146         (A2)--V           2.683947          5.090644
 147         (B1)--V           2.694534          5.468130
 148         (A2)--V           2.695117          5.020515
 149         (A1)--V           2.750154          4.167932
 150         (B2)--V           2.778598          4.225995
 151         (A1)--V           2.784632          4.168871
 152         (B1)--V           2.787402          4.469304
 153         (B2)--V           2.799677          4.276909
 154         (A2)--V           2.812148          4.734466
 155         (B1)--V           2.824188          3.874283
 156         (A1)--V           2.827582          4.294402
 157         (A2)--V           2.858414          3.909598
 158         (B1)--V           2.869251          4.397821
 159         (B2)--V           2.875319          4.417560
 160         (B1)--V           2.903489          5.071533
 161         (A1)--V           2.931016          4.257863
 162         (B2)--V           2.964714          4.213384
 163         (B1)--V           3.006316          4.262752
 164         (A1)--V           3.009676          4.393572
 165         (A1)--V           3.025260          4.288679
 166         (B2)--V           3.028206          4.665327
 167         (B1)--V           3.038838          4.339774
 168         (B2)--V           3.064179          4.645257
 169         (A2)--V           3.078286          4.367399
 170         (B1)--V           3.105753          4.360630
 171         (A2)--V           3.115738          4.146175
 172         (A1)--V           3.120581          4.714762
 173         (B2)--V           3.190331          4.895031
 174         (A2)--V           3.209358          4.158097
 175         (A1)--V           3.230508          4.826646
 176         (B2)--V           3.231543          4.551438
 177         (A1)--V           3.263215          4.778626
 178         (A2)--V           3.264509          4.433836
 179         (B1)--V           3.290401          4.124952
 180         (A1)--V           3.302778          5.225535
 181         (B1)--V           3.327513          4.522379
 182         (B2)--V           3.328594          5.018390
 183         (A2)--V           3.336421          4.351902
 184         (A1)--V           3.339037          5.075896
 185         (B2)--V           3.353086          4.941074
 186         (A2)--V           3.357605          4.715623
 187         (A1)--V           3.386321          4.994464
 188         (B1)--V           3.437132          4.875288
 189         (B2)--V           3.439691          5.641147
 190         (B1)--V           3.454513          4.924474
 191         (A1)--V           3.470198          5.507864
 192         (A2)--V           3.494137          4.679132
 193         (B2)--V           3.508132          5.320935
 194         (A1)--V           3.523804          5.520198
 195         (B2)--V           3.524430          5.012750
 196         (A1)--V           3.551894          4.948849
 197         (A2)--V           3.576307          4.426746
 198         (B2)--V           3.608311          5.123703
 199         (A1)--V           3.647672          5.679017
 200         (B2)--V           3.658972          5.516739
 201         (A1)--V           3.675006          5.083151
 202         (B1)--V           3.718420          5.364246
 203         (A2)--V           3.768659          4.940571
 204         (A1)--V           3.801251          5.647023
 205         (B1)--V           3.831634          5.142320
 206         (A1)--V           3.859495          5.345920
 207         (B1)--V           3.871829          4.885654
 208         (B2)--V           3.887621          5.441580
 209         (A2)--V           3.896514          4.876556
 210         (B1)--V           3.921282          5.086745
 211         (A2)--V           3.943050          4.797531
 212         (B2)--V           3.964274          5.283050
 213         (A1)--V           3.974098          5.593628
 214         (B1)--V           3.987333          6.289744
 215         (A1)--V           4.003557          5.417115
 216         (B2)--V           4.045160          5.759494
 217         (A1)--V           4.068642          5.320995
 218         (B2)--V           4.089479          5.739514
 219         (A2)--V           4.134586          5.043124
 220         (B2)--V           4.144578          5.044174
 221         (B2)--V           4.157306          5.498210
 222         (B1)--V           4.161031          5.088933
 223         (A1)--V           4.169130          5.749925
 224         (B2)--V           4.240205          5.344942
 225         (A1)--V           4.260569          5.489702
 226         (B1)--V           4.289702          5.694350
 227         (A1)--V           4.295308          5.660135
 228         (A1)--V           4.331945          5.620214
 229         (B2)--V           4.337386          5.456999
 230         (A1)--V           4.409282          6.611882
 231         (A2)--V           4.468153          6.040456
 232         (B2)--V           4.493421          6.448943
 233         (A1)--V           4.547243          6.659045
 234         (B1)--V           4.558839          5.944830
 235         (B2)--V           4.625333          6.730997
 236         (A2)--V           4.648314          5.912719
 237         (B1)--V           4.661470          6.280599
 238         (B1)--V           4.716840          5.943671
 239         (A2)--V           4.786563          6.047307
 240         (A1)--V           4.792141          6.488392
 241         (A1)--V           4.826847          6.675892
 242         (B2)--V           4.842557          6.630624
 243         (B2)--V           4.868552          7.219708
 244         (A1)--V           4.891695          7.459561
 245         (B1)--V           4.900367          6.075740
 246         (B2)--V           4.979669          6.687270
 247         (A2)--V           5.008895          6.217676
 248         (B2)--V           5.009725          6.403918
 249         (A1)--V           5.057022          6.609355
 250         (B1)--V           5.129016          7.271306
 251         (B2)--V           5.179957          6.481663
 252         (A1)--V           5.191522          7.536401
 253         (A2)--V           5.194216          6.744583
 254         (B1)--V           5.239062          7.128040
 255         (A1)--V           5.247820          7.519556
 256         (A2)--V           5.293413          7.199920
 257         (B2)--V           5.412933          8.125963
 258         (B1)--V           5.446953          6.755729
 259         (B2)--V           5.456862          7.185374
 260         (A1)--V           5.552699          7.878234
 261         (A1)--V           5.709861          7.570840
 262         (A1)--V           5.753734          7.425606
 263         (A1)--V           5.866077          7.892779
 264         (B2)--V           5.870084          7.871894
 265         (A1)--V           5.982312          8.372878
 266         (B2)--V           6.003735          8.073628
 267         (B2)--V           6.153801          8.316004
 268         (A1)--V           6.217199          8.286429
 269         (A1)--V           6.353879          8.260185
 270         (B2)--V           6.361145          8.433161
 271         (B2)--V           6.550830          8.810795
 272         (A1)--V           6.687090          8.966277
 273         (B2)--V           7.057391          9.790096
 274         (A1)--V          24.591766         60.688305
 275         (B2)--V          24.871694         60.825179
 276         (A1)--V          25.012708         60.893846
 277         (B2)--V          25.154474         60.944008
 278         (A1)--V          25.376691         61.094959
 279         (A1)--V          36.162851         89.092643
 Total kinetic energy from orbitals= 2.470475119521D+02
 No NMR shielding tensors so no spin-rotation constants.
 Leave Link  601 at Fri Dec 20 18:20:56 2019, MaxMem=   536870912 cpu:               5.4 elap:               0.4
 (Enter /software/sse/easybuild/prefix/software/Gaussian/16.B.01-avx2-nsc1-bdist/g16/l602.exe)
 FitSet:  NAtFit=    11 NAtPot=    11 NAtFrz=     0 MDM=    15 TotChg=   0.00000
 Merz-Kollman atomic radii used.

 **********************************************************************

            Electrostatic Properties Using The CI Density.

 **********************************************************************

       Atomic Center    1 is at   0.000000  1.135230  0.718303
       Atomic Center    2 is at  -0.000000 -1.135230  0.718303
       Atomic Center    3 is at   0.000000 -1.190955 -0.668348
       Atomic Center    4 is at   0.000000 -0.000000 -1.376270
       Atomic Center    5 is at   0.000000  1.190955 -0.668348
       Atomic Center    6 is at   0.000000  2.050814  1.302241
       Atomic Center    7 is at  -0.000000 -2.050814  1.302241
       Atomic Center    8 is at   0.000000 -2.147134 -1.176156
       Atomic Center    9 is at   0.000000 -0.000000 -2.459763
       Atomic Center   10 is at   0.000000  2.147134 -1.176156
       Atomic Center   11 is at   0.000000  0.000000  1.409393
     674 points will be used for fitting atomic charges
 Fitting point charges to electrostatic potential
 Charges from ESP fit, RMS=   0.00274 RRMS=   0.26998:
 ESP charges:
               1
     1  C   -0.077171
     2  C   -0.077171
     3  C   -0.279829
     4  C   -0.021931
     5  C   -0.279829
     6  H    0.131416
     7  H    0.131416
     8  H    0.176663
     9  H    0.079701
    10  H    0.176663
    11  N    0.040069
 Sum of ESP charges =   0.00000
 ESP charges with hydrogens summed into heavy atoms:
               1
     1  C    0.054246
     2  C    0.054246
     3  C   -0.103165
     4  C    0.057770
     5  C   -0.103165
    11  N    0.040069
 Charge=   0.00000 Dipole=    -0.0000    -0.0000     0.3866 Tot=     0.3866
 -----------------------------------------------------------------

              Electrostatic Properties (Atomic Units)

 -----------------------------------------------------------------
    Center     Electric         -------- Electric Field --------
               Potential          X             Y             Z
 -----------------------------------------------------------------
    1 Atom    -14.719865
    2 Atom    -14.719865
    3 Atom    -14.756677
    4 Atom    -14.790432
    5 Atom    -14.756677
    6 Atom     -1.074984
    7 Atom     -1.074984
    8 Atom     -1.088381
    9 Atom     -1.110264
   10 Atom     -1.088381
   11 Atom    -18.327454
 -----------------------------------------------------------------
 Leave Link  602 at Fri Dec 20 18:20:57 2019, MaxMem=   536870912 cpu:               1.0 elap:               0.2
 (Enter /software/sse/easybuild/prefix/software/Gaussian/16.B.01-avx2-nsc1-bdist/g16/l9999.exe)
 Electronic transition elements 
                 1             2             3             4             5 
      1  -0.247886D+03 -0.247874D+03 -0.247857D+03 -0.247829D+03 -0.247824D+03
      2   0.000000D+00  0.000000D+00  0.562299D+00  0.000000D+00  0.000000D+00
      3  -0.184878D+00  0.000000D+00  0.000000D+00  0.000000D+00  0.000000D+00
      4   0.000000D+00  0.000000D+00  0.000000D+00  0.342591D+00  0.127533D+00
      5   0.000000D+00  0.000000D+00 -0.115537D+00  0.000000D+00  0.000000D+00
      6   0.347359D-01  0.000000D+00  0.000000D+00  0.000000D+00  0.000000D+00
      7   0.000000D+00  0.000000D+00  0.000000D+00 -0.806319D-01 -0.310315D-01
      8   0.775433D+00  0.000000D+00  0.000000D+00  0.000000D+00  0.000000D+00
      9   0.000000D+00  0.000000D+00 -0.183291D+00  0.000000D+00  0.000000D+00
     10   0.000000D+00 -0.884359D-01  0.000000D+00  0.000000D+00  0.000000D+00
     11   0.000000D+00  0.000000D+00  0.000000D+00 -0.877081D-01 -0.665678D+00
     12   0.000000D+00  0.000000D+00  0.000000D+00 -0.168698D-01  0.390194D-01
     13   0.000000D+00  0.000000D+00  0.000000D+00  0.874917D-01  0.416782D+00
     14   0.000000D+00 -0.880106D-02  0.000000D+00  0.000000D+00  0.000000D+00
     15   0.000000D+00  0.000000D+00  0.959080D-01  0.000000D+00  0.000000D+00
     16  -0.123014D+00  0.000000D+00  0.000000D+00  0.000000D+00  0.000000D+00
 1\1\NSC-N797\SP\RPBE1PBE TD-FC\6-311++G(2df,2pd)\C5H5N1\X_NATPR\20-Dec
 -2019\0\\#p td=(nstates=5,singlets) pbe1pbe/6-311++G(2df,2pd) pop=(mk,
 full) gfinput density=current\\Pyridine singlet excitations\\0,1\C,0,1
 .13523,0.,-0.690537559\C,0,-1.13523,0.,-0.690537559\C,0,-1.190955,0.,0
 .696113441\C,0,0.,0.,1.404035441\C,0,1.190955,0.,0.696113441\H,0,2.050
 814,0.,-1.274475559\H,0,-2.050814,0.,-1.274475559\H,0,-2.147134,0.,1.2
 03921441\H,0,0.,0.,2.487528441\H,0,2.147134,0.,1.203921441\N,0,0.,0.,-
 1.381627559\\Version=ES64L-G16RevB.01\State=1-A1\HF=-248.0644164\RMSD=
 4.422e-09\Dipole=0.,0.,-0.1605031\Quadrupole=3.2211582,-4.2023433,0.98
 11852,0.,0.,0.\PG=C02V [C2(H1C1N1),SGV(C4H4)]\\@


 SUCCESS-- IF YOU HAVE TRIED TO DO SOMETHING AND FAILED
           YOU ARE BETTER OFF THAN IF YOU HAD TRIED TO DO
           NOTHING AND SUCCEEDED.

                   -- FROM THE BACK OF A SUGAR PACKET
 Job cpu time:       0 days  0 hours 24 minutes 47.6 seconds.
 Elapsed time:       0 days  0 hours  1 minutes 34.1 seconds.
 File lengths (MBytes):  RWF=    263 Int=      0 D2E=      0 Chk=     18 Scr=      1
 Normal termination of Gaussian 16 at Fri Dec 20 18:20:57 2019.

=== POST-JOB OUTPUT FROM THE NSC g16 WRAPPER ===
Gaussian calculation successful!
==============================================

